/*--------------------------------*- C++ -*----------------------------------*\
| =========                 |                                                 |
| \\      /  F ield         | OpenFOAM: The Open Source CFD Toolbox           |
|  \\    /   O peration     | Version:  v1706                                 |
|   \\  /    A nd           | Web:      www.OpenFOAM.com                      |
|    \\/     M anipulation  |                                                 |
\*---------------------------------------------------------------------------*/
FoamFile
{
    version     2.0;
    format      ascii;
    class       volScalarField;
    location    "0.014";
    object      alpha;
}
// * * * * * * * * * * * * * * * * * * * * * * * * * * * * * * * * * * * * * //

dimensions      [1 -1 -1 0 0 0 0];


internalField   nonuniform List<scalar> 
15860
(
1.01333663379e-05
1.01333663345e-05
1.01333663321e-05
1.01333663296e-05
1.01333662945e-05
1.01333661625e-05
1.013336593e-05
1.013336569e-05
1.01333653796e-05
1.01333653937e-05
1.01333567689e-05
1.01333218391e-05
1.01332864696e-05
1.01332984851e-05
1.01322660223e-05
1.01302380217e-05
1.0154251416e-05
1.06533174561e-05
1.17051533153e-05
1.25775488114e-05
2.22709747261e-05
6.31649343954e-05
0.000169107204011
0.000190826640969
0.000197852081857
0.000202930824844
0.000208509157849
0.000212919950681
0.000209109940977
0.00020203765957
0.000195387768349
0.00019144108268
0.000191768356582
0.000192385533812
0.000192162982522
0.000192038109236
0.000192196709628
0.000192157797415
0.000191967373216
0.000191508786572
0.000190301131673
0.000188573946606
0.000186275616613
0.000185841667851
0.000185546114205
0.000184609618349
0.000183269460291
0.000182326298347
0.000181667360971
0.000181204154204
0.000180906179909
0.00018066607435
0.000180457502438
0.000180440620236
0.00018032929873
0.000180166745195
0.000180028443419
0.000179872047123
0.000179574957865
0.000179053213134
0.000178149692942
0.000177759190574
0.000177650349482
0.00017752386381
0.000176999607152
0.00017654390543
0.000176241290788
0.000176014573441
0.000175852357396
0.000175690324275
0.000175569924775
0.000175433112766
0.000175342020906
0.000175356206889
0.000175315491208
1.01333663437e-05
1.01333663437e-05
1.01333663437e-05
1.01333663437e-05
1.01333663436e-05
1.01333663434e-05
1.01333663429e-05
1.01333663425e-05
1.0133366342e-05
1.01333663431e-05
1.01333663245e-05
1.01333662551e-05
1.01333661935e-05
1.01333662881e-05
1.01333645233e-05
1.01333618859e-05
1.01335221644e-05
1.01350884505e-05
1.01379939243e-05
1.01411823541e-05
1.01987331149e-05
1.11427318152e-05
1.65305736738e-05
1.86293585439e-05
1.94904675071e-05
2.01680554987e-05
2.09120377046e-05
2.15395832934e-05
2.38831959425e-05
9.59220739088e-05
0.000194459372329
0.000219242168006
0.000219364235163
0.000218115914394
0.000216129187275
0.000214119980537
0.000212199209959
0.000210498016969
0.000208944443735
0.000207912691284
0.000206583410173
0.000204548788991
0.000200064571549
0.000198250182739
0.00019665318334
0.000194896729718
0.000195411412587
0.000195280269899
0.000195114433163
0.000194956442998
0.000194972251061
0.000194949332044
0.000194838615962
0.000194344543578
0.000193825156001
0.000193322962709
0.000192925361386
0.000192560979235
0.000192045919758
0.000191214887416
0.000189725765484
0.000188753559467
0.000188101011599
0.000187632471948
0.000186813710743
0.000186198896195
0.000185764857579
0.000185408214481
0.000185143776674
0.000184884966882
0.000184683181685
0.000184479021361
0.000184323926587
0.000184243754342
0.00018420413419
1.01333663437e-05
1.01333663437e-05
1.01333663437e-05
1.01333663437e-05
1.01333663437e-05
1.01333663437e-05
1.01333663437e-05
1.01333663437e-05
1.01333663437e-05
1.01333663437e-05
1.01333663438e-05
1.01333663439e-05
1.01333663444e-05
1.01333663495e-05
1.01333663628e-05
1.01333663981e-05
1.01333671782e-05
1.01333719782e-05
1.01333796178e-05
1.01333903598e-05
1.01336170171e-05
1.0137750665e-05
1.01564315213e-05
1.01659654318e-05
1.01704149703e-05
1.01742063164e-05
1.01784942318e-05
1.01821472603e-05
1.02231932756e-05
1.2192263757e-05
1.89321057748e-05
2.16634266448e-05
2.18053821051e-05
2.17784087548e-05
2.16820105086e-05
2.15880840955e-05
2.1504363351e-05
2.144213418e-05
2.13930026277e-05
2.13996621198e-05
2.13681115499e-05
2.38505867997e-05
0.00010335375675
0.000187076187977
0.000208817151803
0.000220066258444
0.000220168517593
0.000218698093779
0.000216767105083
0.000214804426498
0.000213059140514
0.000211584187339
0.000210276722396
0.000209588654985
0.000208819472823
0.000208099238084
0.000207512582222
0.000206980460999
0.000206421294479
0.000205619945902
0.0002033164712
0.000201150061646
0.000199433462027
0.000197904793751
0.000197512164415
0.000197846493192
0.000198004082017
0.00019796324458
0.000197980199718
0.000197883007241
0.000197850485679
0.000197748348989
0.000197711114474
0.000197677372754
0.000197545239157
1.01333663437e-05
1.01333663437e-05
1.01333663437e-05
1.01333663437e-05
1.01333663437e-05
1.01333663437e-05
1.01333663437e-05
1.01333663437e-05
1.01333663437e-05
1.01333663437e-05
1.01333663437e-05
1.01333663437e-05
1.01333663437e-05
1.01333663437e-05
1.01333663438e-05
1.01333663442e-05
1.01333663487e-05
1.01333663663e-05
1.01333663894e-05
1.01333664365e-05
1.013336752e-05
1.01333836742e-05
1.01334334279e-05
1.01334604227e-05
1.01334742488e-05
1.01334863102e-05
1.01334993647e-05
1.01335103532e-05
1.01337527875e-05
1.01414333405e-05
1.01680932271e-05
1.01824196498e-05
1.0183476029e-05
1.0183545437e-05
1.01832233941e-05
1.01829214581e-05
1.01826872958e-05
1.01825821259e-05
1.01825691433e-05
1.018287421e-05
1.01829064925e-05
1.02250814938e-05
1.24179756756e-05
1.83232652173e-05
2.07343202396e-05
2.2116060574e-05
2.22383482611e-05
2.21829647059e-05
2.20830394414e-05
2.19816412733e-05
2.19039729866e-05
2.18508530513e-05
2.18097498686e-05
2.18270586296e-05
2.18306745175e-05
2.19843503991e-05
3.84511706085e-05
7.12047749572e-05
9.125302909e-05
0.000107350481839
0.000131008532217
0.000191293139769
0.000207762794508
0.000218822159464
0.000223177641212
0.000223441367323
0.000223260334784
0.000222793809224
0.000222298477578
0.000221718916472
0.000221159310686
0.000220596701515
0.000220029285044
0.000219630159971
0.000219916218214
1.01333663437e-05
1.01333663437e-05
1.01333663437e-05
1.01333663437e-05
1.01333663437e-05
1.01333663437e-05
1.01333663437e-05
1.01333663437e-05
1.01333663437e-05
1.01333663437e-05
1.01333663437e-05
1.01333663437e-05
1.01333663437e-05
1.01333663437e-05
1.01333663437e-05
1.01333663437e-05
1.01333663437e-05
1.01333663438e-05
1.01333663439e-05
1.01333663443e-05
1.01333663522e-05
1.01333664187e-05
1.01333665627e-05
1.01333666418e-05
1.01333666859e-05
1.01333667255e-05
1.01333667653e-05
1.01333667962e-05
1.01333681832e-05
1.01333951829e-05
1.01334673465e-05
1.01335069821e-05
1.01335114668e-05
1.01335132369e-05
1.01335139668e-05
1.01335146344e-05
1.01335153844e-05
1.01335163988e-05
1.01335176261e-05
1.01335195935e-05
1.0133520207e-05
1.01337812963e-05
1.0141833644e-05
1.01659570736e-05
1.0178897708e-05
1.0187002832e-05
1.01879223377e-05
1.01877585699e-05
1.01873300225e-05
1.01869048151e-05
1.01866333729e-05
1.01865172693e-05
1.01864860387e-05
1.01868159373e-05
1.01870287465e-05
1.01891508991e-05
1.03568681672e-05
1.09847981828e-05
1.1638106708e-05
1.23267030954e-05
1.37590248905e-05
1.88272721182e-05
2.07241690914e-05
2.2075564049e-05
2.2651137438e-05
2.2731897515e-05
2.2756694018e-05
2.27423660815e-05
2.27255755916e-05
2.26930712185e-05
2.2663670038e-05
2.26276583533e-05
2.25930000762e-05
2.25699391548e-05
2.25980764807e-05
1.01333663437e-05
1.01333663437e-05
1.01333663437e-05
1.01333663437e-05
1.01333663437e-05
1.01333663437e-05
1.01333663437e-05
1.01333663437e-05
1.01333663437e-05
1.01333663437e-05
1.01333663437e-05
1.01333663437e-05
1.01333663437e-05
1.01333663437e-05
1.01333663437e-05
1.01333663437e-05
1.01333663437e-05
1.01333663437e-05
1.01333663437e-05
1.01333663437e-05
1.01333663438e-05
1.01333663442e-05
1.01333663448e-05
1.0133366345e-05
1.01333663452e-05
1.01333663453e-05
1.01333663455e-05
1.01333663457e-05
1.01333663545e-05
1.01333664518e-05
1.01333666546e-05
1.01333667648e-05
1.01333667818e-05
1.01333667932e-05
1.01333668019e-05
1.013336681e-05
1.01333668178e-05
1.0133366826e-05
1.01333668346e-05
1.01333668446e-05
1.01333668423e-05
1.01333682804e-05
1.01333951009e-05
1.0133462444e-05
1.01334997569e-05
1.01335238921e-05
1.01335283127e-05
1.01335295591e-05
1.0133529923e-05
1.01335301287e-05
1.01335306343e-05
1.01335314461e-05
1.01335324179e-05
1.01335342728e-05
1.01335356463e-05
1.01335506133e-05
1.01340998366e-05
1.01360069024e-05
1.01381042377e-05
1.01404943647e-05
1.01460510287e-05
1.01687303221e-05
1.01791934811e-05
1.01872617511e-05
1.01908961785e-05
1.01914891049e-05
1.01917243258e-05
1.01917096746e-05
1.01916718473e-05
1.01915297609e-05
1.01913995582e-05
1.01912211009e-05
1.01910421306e-05
1.01909325623e-05
1.01911591558e-05
1.01333663437e-05
1.01333663437e-05
1.01333663437e-05
1.01333663437e-05
1.01333663437e-05
1.01333663437e-05
1.01333663437e-05
1.01333663437e-05
1.01333663437e-05
1.01333663437e-05
1.01333663437e-05
1.01333663437e-05
1.01333663437e-05
1.01333663437e-05
1.01333663437e-05
1.01333663437e-05
1.01333663437e-05
1.01333663437e-05
1.01333663437e-05
1.01333663437e-05
1.01333663437e-05
1.01333663437e-05
1.01333663437e-05
1.01333663437e-05
1.01333663437e-05
1.01333663437e-05
1.01333663437e-05
1.01333663437e-05
1.01333663438e-05
1.01333663442e-05
1.0133366345e-05
1.01333663453e-05
1.01333663454e-05
1.01333663454e-05
1.01333663455e-05
1.01333663456e-05
1.01333663456e-05
1.01333663457e-05
1.01333663457e-05
1.01333663458e-05
1.01333663459e-05
1.01333663544e-05
1.01333664462e-05
1.01333666392e-05
1.0133366746e-05
1.01333668196e-05
1.01333668391e-05
1.01333668496e-05
1.01333668571e-05
1.01333668635e-05
1.01333668702e-05
1.01333668772e-05
1.01333668842e-05
1.01333668933e-05
1.01333668996e-05
1.01333669753e-05
1.01333687433e-05
1.01333742703e-05
1.01333803825e-05
1.01333875362e-05
1.01334048769e-05
1.01334707389e-05
1.01335016199e-05
1.01335258086e-05
1.01335373532e-05
1.0133539987e-05
1.0133541525e-05
1.01335421878e-05
1.0133542777e-05
1.0133542914e-05
1.01335430903e-05
1.01335429908e-05
1.01335429126e-05
1.01335429049e-05
1.01335434861e-05
1.01333663437e-05
1.01333663437e-05
1.01333663437e-05
1.01333663437e-05
1.01333663437e-05
1.01333663437e-05
1.01333663437e-05
1.01333663437e-05
1.01333663437e-05
1.01333663437e-05
1.01333663437e-05
1.01333663437e-05
1.01333663437e-05
1.01333663437e-05
1.01333663437e-05
1.01333663437e-05
1.01333663437e-05
1.01333663437e-05
1.01333663437e-05
1.01333663437e-05
1.01333663437e-05
1.01333663437e-05
1.01333663437e-05
1.01333663437e-05
1.01333663437e-05
1.01333663437e-05
1.01333663437e-05
1.01333663437e-05
1.01333663437e-05
1.01333663437e-05
1.01333663437e-05
1.01333663437e-05
1.01333663437e-05
1.01333663437e-05
1.01333663437e-05
1.01333663437e-05
1.01333663437e-05
1.01333663437e-05
1.01333663437e-05
1.01333663437e-05
1.01333663437e-05
1.01333663438e-05
1.01333663442e-05
1.01333663449e-05
1.01333663452e-05
1.01333663455e-05
1.01333663455e-05
1.01333663456e-05
1.01333663457e-05
1.01333663457e-05
1.01333663457e-05
1.01333663458e-05
1.01333663459e-05
1.01333663459e-05
1.01333663459e-05
1.01333663465e-05
1.01333663525e-05
1.0133366369e-05
1.01333663869e-05
1.0133366409e-05
1.01333664663e-05
1.01333666663e-05
1.01333667593e-05
1.01333668341e-05
1.01333668724e-05
1.0133366884e-05
1.01333668919e-05
1.01333668968e-05
1.01333669012e-05
1.01333669039e-05
1.01333669065e-05
1.01333669081e-05
1.01333669095e-05
1.01333669106e-05
1.01333669117e-05
1.01333663437e-05
1.01333663437e-05
1.01333663437e-05
1.01333663437e-05
1.01333663437e-05
1.01333663437e-05
1.01333663437e-05
1.01333663437e-05
1.01333663437e-05
1.01333663437e-05
1.01333663437e-05
1.01333663437e-05
1.01333663437e-05
1.01333663437e-05
1.01333663437e-05
1.01333663437e-05
1.01333663437e-05
1.01333663437e-05
1.01333663437e-05
1.01333663437e-05
1.01333663437e-05
1.01333663437e-05
1.01333663437e-05
1.01333663437e-05
1.01333663437e-05
1.01333663437e-05
1.01333663437e-05
1.01333663437e-05
1.01333663437e-05
1.01333663437e-05
1.01333663437e-05
1.01333663437e-05
1.01333663437e-05
1.01333663437e-05
1.01333663437e-05
1.01333663437e-05
1.01333663437e-05
1.01333663437e-05
1.01333663437e-05
1.01333663437e-05
1.01333663437e-05
1.01333663437e-05
1.01333663437e-05
1.01333663437e-05
1.01333663437e-05
1.01333663437e-05
1.01333663437e-05
1.01333663437e-05
1.01333663437e-05
1.01333663437e-05
1.01333663437e-05
1.01333663437e-05
1.01333663437e-05
1.01333663437e-05
1.01333663437e-05
1.01333663437e-05
1.01333663438e-05
1.01333663438e-05
1.01333663439e-05
1.01333663439e-05
1.01333663442e-05
1.01333663449e-05
1.01333663452e-05
1.01333663455e-05
1.01333663456e-05
1.01333663456e-05
1.01333663457e-05
1.01333663457e-05
1.01333663457e-05
1.01333663457e-05
1.01333663458e-05
1.01333663458e-05
1.01333663458e-05
1.01333663458e-05
1.01333663458e-05
1.01333663437e-05
1.01333663437e-05
1.01333663437e-05
1.01333663437e-05
1.01333663437e-05
1.01333663437e-05
1.01333663437e-05
1.01333663437e-05
1.01333663437e-05
1.01333663437e-05
1.01333663437e-05
1.01333663437e-05
1.01333663437e-05
1.01333663437e-05
1.01333663437e-05
1.01333663437e-05
1.01333663437e-05
1.01333663437e-05
1.01333663437e-05
1.01333663437e-05
1.01333663437e-05
1.01333663437e-05
1.01333663437e-05
1.01333663437e-05
1.01333663437e-05
1.01333663437e-05
1.01333663437e-05
1.01333663437e-05
1.01333663437e-05
1.01333663437e-05
1.01333663437e-05
1.01333663437e-05
1.01333663437e-05
1.01333663437e-05
1.01333663437e-05
1.01333663437e-05
1.01333663437e-05
1.01333663437e-05
1.01333663437e-05
1.01333663437e-05
1.01333663437e-05
1.01333663437e-05
1.01333663437e-05
1.01333663437e-05
1.01333663437e-05
1.01333663437e-05
1.01333663437e-05
1.01333663437e-05
1.01333663437e-05
1.01333663437e-05
1.01333663437e-05
1.01333663437e-05
1.01333663437e-05
1.01333663437e-05
1.01333663437e-05
1.01333663437e-05
1.01333663437e-05
1.01333663437e-05
1.01333663437e-05
1.01333663437e-05
1.01333663437e-05
1.01333663437e-05
1.01333663437e-05
1.01333663437e-05
1.01333663437e-05
1.01333663437e-05
1.01333663437e-05
1.01333663437e-05
1.01333663437e-05
1.01333663437e-05
1.01333663437e-05
1.01333663437e-05
1.01333663437e-05
1.01333663437e-05
1.01333663437e-05
1.01333663437e-05
1.01333663437e-05
1.01333663437e-05
1.01333663437e-05
1.01333663437e-05
1.01333663437e-05
1.01333663437e-05
1.01333663437e-05
1.01333663437e-05
1.01333663437e-05
1.01333663437e-05
1.01333663437e-05
1.01333663437e-05
1.01333663437e-05
1.01333663437e-05
1.01333663437e-05
1.01333663437e-05
1.01333663437e-05
1.01333663437e-05
1.01333663437e-05
1.01333663437e-05
1.01333663437e-05
1.01333663437e-05
1.01333663437e-05
1.01333663437e-05
1.01333663437e-05
1.01333663437e-05
1.01333663437e-05
1.01333663437e-05
1.01333663437e-05
1.01333663437e-05
1.01333663437e-05
1.01333663437e-05
1.01333663437e-05
1.01333663437e-05
1.01333663437e-05
1.01333663437e-05
1.01333663437e-05
1.01333663437e-05
1.01333663437e-05
1.01333663437e-05
1.01333663437e-05
1.01333663437e-05
1.01333663437e-05
1.01333663437e-05
1.01333663437e-05
1.01333663437e-05
1.01333663437e-05
1.01333663437e-05
1.01333663437e-05
1.01333663437e-05
1.01333663437e-05
1.01333663437e-05
1.01333663437e-05
1.01333663437e-05
1.01333663437e-05
1.01333663437e-05
1.01333663437e-05
1.01333663437e-05
1.01333663437e-05
1.01333663437e-05
1.01333663437e-05
1.01333663437e-05
1.01333663437e-05
1.01333663437e-05
1.01333663437e-05
1.01333663437e-05
1.01333663437e-05
1.01333663437e-05
1.01333663437e-05
1.01333663437e-05
1.01333663437e-05
1.01333663437e-05
1.01333663437e-05
1.01333663437e-05
1.01333663437e-05
1.01333663437e-05
1.01333663437e-05
1.01333663437e-05
1.01333663437e-05
1.01333663437e-05
1.01333663437e-05
1.01333663437e-05
1.01333663437e-05
1.01333663437e-05
1.01333663437e-05
1.01333663437e-05
1.01333663437e-05
1.01333663437e-05
1.01333663437e-05
1.01333663437e-05
1.01333663437e-05
1.01333663437e-05
1.01333663437e-05
1.01333663437e-05
1.01333663437e-05
1.01333663437e-05
1.01333663437e-05
1.01333663437e-05
1.01333663437e-05
1.01333663437e-05
1.01333663437e-05
1.01333663437e-05
1.01333663437e-05
1.01333663437e-05
1.01333663437e-05
1.01333663437e-05
1.01333663437e-05
1.01333663437e-05
1.01333663437e-05
1.01333663437e-05
1.01333663437e-05
1.01333663437e-05
1.01333663437e-05
1.01333663437e-05
1.01333663437e-05
1.01333663437e-05
1.01333663437e-05
1.01333663437e-05
1.01333663437e-05
1.01333663437e-05
1.01333663437e-05
1.01333663437e-05
1.01333663437e-05
1.01333663437e-05
1.01333663437e-05
1.01333663437e-05
1.01333663437e-05
1.01333663437e-05
1.01333663437e-05
1.01333663437e-05
1.01333663437e-05
1.01333663437e-05
1.01333663437e-05
1.01333663437e-05
1.01333663437e-05
1.01333663437e-05
1.01333663437e-05
1.01333663437e-05
1.01333663437e-05
1.01333663437e-05
1.01333663437e-05
1.01333663437e-05
1.01333663437e-05
1.01333663437e-05
1.01333663437e-05
1.01333663437e-05
1.01333663437e-05
1.01333663437e-05
1.01333663437e-05
1.01333663437e-05
1.01333663437e-05
1.01333663437e-05
1.01333663437e-05
1.01333663437e-05
1.01333663437e-05
1.01333663437e-05
1.01333663437e-05
1.01333663437e-05
1.01333663437e-05
1.01333663437e-05
1.01333663437e-05
1.01333663437e-05
1.01333663437e-05
1.01333663437e-05
1.01333663437e-05
1.01333663437e-05
1.01333663437e-05
1.01333663437e-05
1.01333663437e-05
1.01333663437e-05
1.01333663437e-05
1.01333663437e-05
1.01333663437e-05
1.01333663437e-05
1.01333663437e-05
1.01333663437e-05
1.01333663437e-05
1.01333663437e-05
1.01333663437e-05
1.01333663437e-05
1.01333663437e-05
1.01333663437e-05
1.01333663437e-05
1.01333663437e-05
1.01333663437e-05
1.01333663437e-05
1.01333663437e-05
1.01333663437e-05
1.01333663437e-05
1.01333663437e-05
1.01333663437e-05
1.01333663437e-05
1.01333663437e-05
1.01333663437e-05
1.01333663437e-05
1.01333663437e-05
1.01333663437e-05
1.01333663437e-05
1.01333663437e-05
1.01333663437e-05
1.01333663437e-05
1.01333663437e-05
1.01333663437e-05
1.01333663437e-05
1.01333663437e-05
1.01333663437e-05
1.01333663437e-05
1.01333663437e-05
1.01333663437e-05
1.01333663437e-05
1.01333663437e-05
1.01333663437e-05
1.01333663437e-05
1.01333663437e-05
1.01333663437e-05
1.01333663437e-05
1.01333663437e-05
1.01333663437e-05
1.01333663437e-05
1.01333663437e-05
1.01333663437e-05
1.01333663437e-05
1.01333663437e-05
1.01333663437e-05
1.01333663437e-05
1.01333663437e-05
1.01333663437e-05
1.01333663437e-05
1.01333663437e-05
1.01333663437e-05
1.01333663437e-05
1.01333663437e-05
1.01333663437e-05
1.01333663437e-05
1.01333663437e-05
1.01333663437e-05
1.01333663437e-05
1.01333663437e-05
1.01333663437e-05
1.01333663437e-05
1.01333663437e-05
1.01333663437e-05
1.01333663437e-05
1.01333663437e-05
1.01333663437e-05
1.01333663437e-05
1.01333663437e-05
1.01333663437e-05
1.01333663437e-05
1.01333663437e-05
1.01333663437e-05
1.01333663437e-05
1.01333663437e-05
1.01333663437e-05
1.01333663437e-05
1.01333663437e-05
1.01333663437e-05
1.01333663437e-05
1.01333663437e-05
1.01333663437e-05
1.01333663437e-05
1.01333663437e-05
1.01333663437e-05
1.01333663437e-05
1.01333663437e-05
1.01333663437e-05
1.01333663437e-05
1.01333663437e-05
1.01333663437e-05
1.01333663437e-05
1.01333663437e-05
1.01333663437e-05
1.01333663437e-05
1.01333663437e-05
1.01333663437e-05
1.01333663437e-05
1.01333663437e-05
1.01333663437e-05
1.01333663437e-05
1.01333663437e-05
1.01333663437e-05
1.01333663437e-05
1.01333663437e-05
1.01333663437e-05
1.01333663437e-05
1.01333663437e-05
1.01333663437e-05
1.01333663437e-05
1.01333663437e-05
1.01333663437e-05
1.01333663437e-05
1.01333663437e-05
1.01333663437e-05
1.01333663437e-05
1.01333663437e-05
1.01333663437e-05
1.01333663437e-05
1.01333663437e-05
1.01333663437e-05
1.01333663437e-05
1.01333663437e-05
1.01333663437e-05
1.01333663437e-05
1.01333663437e-05
1.01333663437e-05
1.01333663437e-05
1.01333663437e-05
1.01333663437e-05
1.01333663437e-05
1.01333663437e-05
1.01333663437e-05
1.01333663437e-05
1.01333663437e-05
1.01333663437e-05
1.01333663437e-05
1.01333663437e-05
1.01333663437e-05
1.01333663437e-05
1.01333663437e-05
1.01333663437e-05
1.01333663437e-05
1.01333663437e-05
1.01333663437e-05
1.01333663437e-05
1.01333663437e-05
1.01333663437e-05
1.01333663437e-05
1.01333663437e-05
1.01333663437e-05
1.01333663437e-05
1.01333663437e-05
1.01333663437e-05
1.01333663437e-05
1.01333663437e-05
1.01333663437e-05
1.01333663437e-05
1.01333663437e-05
1.01333663437e-05
1.01333663437e-05
1.01333663437e-05
1.01333663437e-05
1.01333663437e-05
1.01333663437e-05
1.01333663437e-05
1.01333663437e-05
1.01333663437e-05
1.01333663437e-05
1.01333663437e-05
1.01333663437e-05
1.01333663437e-05
1.01333663437e-05
1.01333663437e-05
1.01333663437e-05
1.01333663437e-05
1.01333663437e-05
1.01333663437e-05
1.01333663437e-05
1.01333663437e-05
1.01333663437e-05
1.01333663437e-05
1.01333663437e-05
1.01333663437e-05
1.01333663437e-05
1.01333663437e-05
1.01333663437e-05
1.01333663437e-05
1.01333663437e-05
1.01333663437e-05
1.01333663437e-05
1.01333663437e-05
1.01333663437e-05
1.01333663437e-05
1.01333663437e-05
1.01333663437e-05
1.01333663437e-05
1.01333663437e-05
1.01333663437e-05
1.01333663437e-05
1.01333663437e-05
1.01333663437e-05
1.01333663437e-05
1.01333663437e-05
1.01333663437e-05
1.01333663437e-05
1.01333663437e-05
1.01333663437e-05
1.01333663437e-05
1.01333663437e-05
1.01333663437e-05
1.01333663437e-05
1.01333663437e-05
1.01333663437e-05
1.01333663437e-05
1.01333663437e-05
1.01333663437e-05
1.01333663437e-05
1.01333663437e-05
1.01333663437e-05
1.01333663437e-05
1.01333663437e-05
1.01333663437e-05
1.01333663437e-05
1.01333663437e-05
1.01333663437e-05
1.01333663437e-05
1.01333663437e-05
1.01333663437e-05
1.01333663437e-05
1.01333663437e-05
1.01333663437e-05
1.01333663437e-05
1.01333663437e-05
1.01333663437e-05
1.01333663437e-05
1.01333663437e-05
1.01333663437e-05
1.01333663437e-05
1.01333663437e-05
1.01333663437e-05
1.01333663437e-05
1.01333663437e-05
1.01333663437e-05
1.01333663437e-05
1.01333663437e-05
1.01333663437e-05
1.01333663437e-05
1.01333663437e-05
1.01333663437e-05
1.01333663437e-05
1.01333663437e-05
1.01333663437e-05
1.01333663437e-05
1.01333663437e-05
1.01333663437e-05
1.01333663437e-05
1.01333663437e-05
1.01333663437e-05
1.01333663437e-05
1.01333663437e-05
1.01333663437e-05
1.01333663437e-05
1.01333663437e-05
1.01333663437e-05
1.01333663437e-05
1.01333663437e-05
1.01333663437e-05
1.01333663437e-05
1.01333663437e-05
1.01333663437e-05
1.01333663437e-05
1.01333663437e-05
1.01333663437e-05
1.01333663437e-05
1.01333663437e-05
1.01333663437e-05
1.01333663437e-05
1.01333663437e-05
1.01333663437e-05
1.01333663437e-05
1.01333663437e-05
1.01333663437e-05
1.01333663437e-05
1.01333663437e-05
1.01333663437e-05
1.01333663437e-05
1.01333663437e-05
1.01333663437e-05
1.01333663437e-05
1.01333663437e-05
1.01333663437e-05
1.01333663437e-05
1.01333663437e-05
1.01333663437e-05
1.01333663437e-05
1.01333663437e-05
1.01333663437e-05
1.01333663437e-05
1.01333663437e-05
1.01333663437e-05
1.01333663437e-05
1.01333663437e-05
1.01333663437e-05
1.01333663437e-05
1.01333663437e-05
1.01333663437e-05
1.01333663437e-05
1.01333663437e-05
1.01333663437e-05
1.01333663437e-05
1.01333663437e-05
1.01333663437e-05
1.01333663437e-05
1.01333663437e-05
1.01333663437e-05
1.01333663437e-05
1.01333663437e-05
1.01333663437e-05
1.01333663437e-05
1.01333663437e-05
1.01333663437e-05
1.01333663437e-05
1.01333663437e-05
1.01333663437e-05
1.01333663437e-05
1.01333663437e-05
1.01333663437e-05
1.01333663437e-05
1.01333663437e-05
1.01333663437e-05
1.01333663437e-05
1.01333663437e-05
1.01333663437e-05
1.01333663437e-05
1.01333663437e-05
1.01333663437e-05
1.01333663437e-05
1.01333663437e-05
1.01333663437e-05
1.01333663437e-05
1.01333663437e-05
1.01333663437e-05
1.01333663437e-05
1.01333663437e-05
1.01333663437e-05
1.01333663437e-05
1.01333663437e-05
1.01333663437e-05
1.01333663437e-05
1.01333663437e-05
1.01333663437e-05
1.01333663437e-05
1.01333663437e-05
1.01333663437e-05
1.01333663437e-05
1.01333663437e-05
1.01333663437e-05
1.01333663437e-05
1.01333663437e-05
1.01333663437e-05
1.01333663437e-05
1.01333663437e-05
1.01333663437e-05
1.01333663437e-05
1.01333663437e-05
1.01333663437e-05
1.01333663437e-05
1.01333663437e-05
1.01333663437e-05
1.01333663437e-05
1.01333663437e-05
1.01333663437e-05
1.01333663437e-05
1.01333663437e-05
1.01333663437e-05
1.01333663437e-05
1.01333663437e-05
1.01333663437e-05
1.01333663437e-05
1.01333663437e-05
1.01333663437e-05
1.01333663437e-05
1.01333663437e-05
1.01333663437e-05
1.01333663437e-05
1.01333663437e-05
1.01333663437e-05
1.01333663437e-05
1.01333663437e-05
1.01333663437e-05
1.01333663437e-05
1.01333663437e-05
1.01333663437e-05
1.01333663437e-05
1.01333663437e-05
1.01333663437e-05
1.01333663437e-05
1.01333663437e-05
1.01333663437e-05
1.01333663437e-05
1.01333663437e-05
1.01333663437e-05
1.01333663437e-05
1.01333663437e-05
1.01333663437e-05
1.01333663437e-05
1.01333663437e-05
1.01333663437e-05
1.01333663437e-05
1.01333663437e-05
1.01333663437e-05
1.01333663437e-05
1.01333663437e-05
1.01333663437e-05
1.01333663437e-05
1.01333663437e-05
1.01333663437e-05
1.01333663437e-05
1.01333663437e-05
1.01333663437e-05
1.01333663437e-05
1.01333663437e-05
1.01333663437e-05
1.01333663437e-05
1.01333663437e-05
1.01333663437e-05
1.01333663437e-05
1.01333663437e-05
1.01333663437e-05
1.01333663437e-05
1.01333663437e-05
1.01333663437e-05
1.01333663437e-05
1.01333663437e-05
1.01333663437e-05
1.01333663437e-05
1.01333663437e-05
1.01333663437e-05
1.01333663437e-05
1.01333663437e-05
1.01333663437e-05
1.01333663437e-05
1.01333663437e-05
1.01333663437e-05
1.01333663437e-05
1.01333663437e-05
1.01333663437e-05
1.01333663437e-05
1.01333663437e-05
1.01333663437e-05
1.01333663437e-05
1.01333663437e-05
1.01333663437e-05
1.01333663437e-05
1.01333663437e-05
1.01333663437e-05
1.01333663437e-05
1.01333663437e-05
1.01333663437e-05
1.01333663437e-05
1.01333663437e-05
1.01333663437e-05
1.01333663437e-05
1.01333663437e-05
1.01333663437e-05
1.01333663437e-05
1.01333663437e-05
1.01333663437e-05
1.01333663437e-05
1.01333663437e-05
1.01333663437e-05
1.01333663437e-05
1.01333663437e-05
1.01333663437e-05
1.01333663437e-05
1.01333663437e-05
1.01333663437e-05
1.01333663437e-05
1.01333663437e-05
1.01333663437e-05
1.01333663437e-05
1.01333663437e-05
1.01333663437e-05
1.01333663437e-05
1.01333663437e-05
1.01333663437e-05
1.01333663437e-05
1.01333663437e-05
1.01333663437e-05
1.01333663437e-05
1.01333663437e-05
1.01333663437e-05
1.01333663437e-05
1.01333663437e-05
1.01333663437e-05
1.01333663437e-05
1.01333663437e-05
1.01333663437e-05
1.01333663437e-05
1.01333663437e-05
1.01333663437e-05
1.01333663437e-05
1.01333663437e-05
1.01333663437e-05
1.01333663437e-05
1.01333663437e-05
1.01333663437e-05
1.01333663437e-05
1.01333663437e-05
1.01333663437e-05
1.01333663437e-05
1.01333663437e-05
1.01333663437e-05
1.01333663437e-05
1.01333663437e-05
1.01333663437e-05
1.01333663437e-05
1.01333663437e-05
1.01333663437e-05
1.01333663437e-05
1.01333663437e-05
1.01333663437e-05
1.01333663437e-05
1.01333663437e-05
1.01333663437e-05
1.01333663437e-05
1.01333663437e-05
1.01333663437e-05
1.01333663437e-05
1.01333663437e-05
1.01333663437e-05
1.01333663437e-05
1.01333663437e-05
1.01333663437e-05
1.01333663437e-05
1.01333663437e-05
1.01333663437e-05
1.01333663437e-05
1.01333663437e-05
1.01333663437e-05
1.01333663437e-05
1.01333663437e-05
1.01333663437e-05
1.01333663437e-05
1.01333663437e-05
1.01333663437e-05
1.01333663437e-05
1.01333663437e-05
1.01333663437e-05
1.01333663437e-05
1.01333663437e-05
1.01333663437e-05
1.01333663437e-05
1.01333663437e-05
1.01333663437e-05
1.01333663437e-05
1.01333663437e-05
1.01333663437e-05
1.01333663437e-05
1.01333663437e-05
1.01333663437e-05
1.01333663437e-05
1.01333663437e-05
1.01333663437e-05
1.01333663437e-05
1.01333663437e-05
1.01333663437e-05
1.01333663437e-05
1.01333663437e-05
1.01333663437e-05
1.01333663437e-05
1.01333663437e-05
1.01333663437e-05
1.01333663437e-05
1.01333663437e-05
1.01333663437e-05
1.01333663437e-05
1.01333663437e-05
1.01333663437e-05
1.01333663437e-05
1.01333663437e-05
1.01333663437e-05
1.01333663437e-05
1.01333663437e-05
1.01333663437e-05
1.01333663437e-05
1.01333663437e-05
1.01333663437e-05
1.01333663437e-05
1.01333663437e-05
1.01333663437e-05
1.01333663437e-05
1.01333663437e-05
1.01333663437e-05
1.01333663437e-05
1.01333663437e-05
1.01333663437e-05
1.01333663437e-05
1.01333663437e-05
1.01333663437e-05
1.01333663437e-05
1.01333663437e-05
1.01333663437e-05
1.01333663437e-05
1.01333663437e-05
1.01333663437e-05
1.01333663437e-05
1.01333663437e-05
1.01333663437e-05
1.01333663437e-05
1.01333663437e-05
1.01333663437e-05
1.01333663437e-05
1.01333663437e-05
1.01333663437e-05
1.01333663437e-05
1.01333663437e-05
1.01333663437e-05
1.01333663437e-05
1.01333663437e-05
1.01333663437e-05
1.01333663437e-05
1.01333663437e-05
1.01333663437e-05
1.01333663437e-05
1.01333663437e-05
1.01333663437e-05
1.01333663437e-05
1.01333663437e-05
1.01333663437e-05
1.01333663437e-05
1.01333663437e-05
1.01333663437e-05
1.01333663437e-05
1.01333663437e-05
1.01333663437e-05
1.01333663437e-05
1.01333663437e-05
1.01333663437e-05
1.01333663437e-05
1.01333663437e-05
1.01333663437e-05
1.01333663437e-05
1.01333663437e-05
1.01333663437e-05
1.01333663437e-05
1.01333663437e-05
1.01333663437e-05
1.01333663437e-05
1.01333663437e-05
1.01333663437e-05
1.01333663437e-05
1.01333663437e-05
1.01333663437e-05
1.01333663437e-05
1.01333663437e-05
1.01333663437e-05
1.01333663437e-05
1.01333663437e-05
1.01333663437e-05
1.01333663437e-05
1.01333663437e-05
1.01333663437e-05
1.01333663437e-05
1.01333663437e-05
1.01333663437e-05
1.01333663437e-05
1.01333663437e-05
1.01333663437e-05
1.01333663437e-05
1.01333663437e-05
1.01333663437e-05
1.01333663437e-05
1.01333663437e-05
1.01333663437e-05
1.01333663437e-05
1.01333663437e-05
1.01333663437e-05
1.01333663437e-05
1.01333663437e-05
1.01333663437e-05
1.01333663437e-05
1.01333663437e-05
1.01333663437e-05
1.01333663437e-05
1.01333663437e-05
1.01333663437e-05
1.01333663437e-05
1.01333663437e-05
1.01333663437e-05
1.01333663437e-05