/*--------------------------------*- C++ -*----------------------------------*\
| =========                 |                                                 |
| \\      /  F ield         | OpenFOAM: The Open Source CFD Toolbox           |
|  \\    /   O peration     | Version:  v1706                                 |
|   \\  /    A nd           | Web:      www.OpenFOAM.com                      |
|    \\/     M anipulation  |                                                 |
\*---------------------------------------------------------------------------*/
FoamFile
{
    version     2.0;
    format      ascii;
    class       volScalarField;
    location    "0.014";
    object      C;
}
// * * * * * * * * * * * * * * * * * * * * * * * * * * * * * * * * * * * * * //

dimensions      [0 0 0 0 0 0 0];


internalField   nonuniform List<scalar> 
15860
(
3.52732128623e-28
2.1538746572e-27
1.32921301254e-26
1.52330958865e-25
9.01932706188e-25
5.98291291405e-24
4.14921968999e-23
2.98222678385e-22
2.17417661459e-21
1.58023057678e-20
1.14015572143e-19
8.25433446591e-19
6.06538895126e-18
4.54500128186e-17
3.4705937695e-16
2.70209131182e-15
2.14540756079e-14
1.73655719e-13
1.43191566833e-12
1.20376544076e-11
1.92847857775e-10
2.83874352383e-09
1.61214660363e-08
6.79901223317e-08
2.6013373801e-07
6.48826351626e-07
1.53750768758e-06
3.09962441277e-06
3.54184931813e-06
3.28949566056e-06
3.46012663108e-06
3.57920504695e-06
4.23009275865e-06
4.74650842342e-06
5.09868706311e-06
5.42490864288e-06
5.83773307069e-06
6.04345490688e-06
6.14484635196e-06
6.17261454847e-06
5.90603600021e-06
5.55045054607e-06
5.31739763345e-06
5.73554608502e-06
5.75995187344e-06
5.83639086306e-06
6.17385876217e-06
6.36675911049e-06
6.60031762593e-06
6.82377827412e-06
7.05257984988e-06
7.21494755387e-06
7.3380489785e-06
7.45164307274e-06
7.52221044173e-06
7.55856371152e-06
7.58121420667e-06
7.54352743239e-06
7.34313708126e-06
6.97376940461e-06
6.57073954987e-06
6.61958126704e-06
6.42015880595e-06
6.28869931834e-06
6.29658262319e-06
6.43908403914e-06
6.54285194422e-06
6.61242199301e-06
6.70638399046e-06
6.74887611013e-06
6.82027322959e-06
6.84323872007e-06
6.91299541904e-06
6.96956925058e-06
6.81830854337e-06
6.57288024339e-34
3.82032194367e-33
2.25815010093e-32
1.35762411781e-31
8.30323776099e-31
5.16685147699e-30
3.27179896835e-29
2.10864364652e-28
1.3834131321e-27
9.24083792036e-27
6.2858321031e-26
4.35501917796e-25
3.07383100432e-24
2.21066160472e-23
1.62035367602e-22
1.21070653699e-21
9.22378382104e-21
7.16674343039e-20
5.68045386171e-19
4.5941888143e-18
3.79208603488e-17
3.18990748666e-16
2.70950622885e-15
2.34649452802e-14
2.07550083458e-13
1.87578401926e-12
1.73302584561e-11
1.63730142231e-10
1.58117963227e-09
2.55346861919e-08
1.35588467881e-07
4.85186674349e-07
8.54213004557e-07
1.25305585652e-06
1.67796561589e-06
2.08625698887e-06
2.45583175853e-06
2.79513720445e-06
3.10612984156e-06
3.59372004033e-06
3.82405910811e-06
3.92178848233e-06
3.81784384939e-06
4.58708562833e-06
4.66772682957e-06
4.85099501427e-06
5.54184451708e-06
6.01120083224e-06
6.44170879469e-06
6.79590998513e-06
7.18551270169e-06
7.4668303549e-06
7.67208282061e-06
7.83451131338e-06
7.95322165306e-06
8.04647776008e-06
8.12786354685e-06
8.18034608623e-06
8.05189240535e-06
7.67523663005e-06
7.11428103184e-06
7.40331437992e-06
7.09889247145e-06
6.88417926861e-06
6.9303810918e-06
7.15769885909e-06
7.3415378284e-06
7.44799415563e-06
7.59297657308e-06
7.65949087822e-06
7.76809741402e-06
7.80920249687e-06
7.91366524606e-06
7.97869025123e-06
7.76178911486e-06
1.22733946115e-47
6.74458701423e-47
3.76822667883e-46
2.1408058599e-45
1.23693141976e-44
7.26965036087e-44
4.34665021016e-43
2.64450995021e-42
1.63743353728e-41
1.03202788303e-40
6.62235718536e-40
4.32727307662e-39
2.87996184452e-38
1.95264502368e-37
1.34902724241e-36
9.49902783519e-36
6.81871202578e-35
4.99111656878e-34
3.72628903324e-33
2.83827334592e-32
2.2062263819e-31
1.75058549114e-30
1.41826084214e-29
1.17360265355e-28
9.92260806422e-28
8.57468040677e-27
7.57617750077e-26
6.84675345272e-25
6.33067852913e-24
5.97113501741e-23
5.68470944972e-22
5.53360896859e-21
5.51829940266e-20
5.64317939311e-19
5.91942211235e-18
6.37343835123e-17
7.04814670147e-16
8.01044368392e-15
9.36237916234e-14
1.12596248899e-12
1.3942456233e-11
1.77771111609e-10
1.99894576083e-09
1.11637218366e-08
9.58250106453e-08
4.27105128754e-07
8.78692486904e-07
1.38556710526e-06
1.92636914613e-06
2.42546803105e-06
2.87369202455e-06
3.25500168437e-06
3.59788391796e-06
4.06770772363e-06
4.41943968986e-06
4.72744819006e-06
4.99508411516e-06
5.27676445514e-06
5.46319454646e-06
5.48993660517e-06
5.08854920516e-06
5.8032316285e-06
5.62729665726e-06
5.43213783612e-06
5.70179556673e-06
6.16760483589e-06
6.54299569073e-06
6.77010154037e-06
7.0323165778e-06
7.17854618764e-06
7.37106752592e-06
7.46916836013e-06
7.63763915015e-06
7.7418721559e-06
7.49611020173e-06
7.26350214206e-70
3.77189147345e-69
1.99102942907e-68
1.0684874561e-67
5.83047875551e-67
3.23559252959e-66
1.82638412214e-65
1.04880608219e-64
6.12832029391e-64
3.64428015359e-63
2.2059188896e-62
1.3594429035e-61
8.53129762022e-61
5.45310647222e-60
3.55093651444e-59
2.35619134023e-58
1.59348939453e-57
1.09866382386e-56
7.72445000432e-56
5.5395148598e-55
4.053182513e-54
3.02666550313e-53
2.30730504283e-52
1.79618979697e-51
1.42838742166e-50
1.16073323299e-49
9.64192983072e-49
8.19030613706e-48
7.11717735654e-47
6.32929085604e-46
5.76227347391e-45
5.37329212597e-44
5.13461884512e-43
5.03049316819e-42
5.05559143758e-41
5.21469681202e-40
5.52371849305e-39
6.01233491042e-38
6.72888318746e-37
7.74865762582e-36
9.18771113376e-35
1.12249007034e-33
1.40839554845e-32
1.80038731156e-31
2.37403800781e-30
3.23310921632e-29
4.55515861765e-28
6.64672630525e-27
1.00598320546e-25
1.58154847791e-24
2.58667768635e-23
4.4081106074e-22
7.84115150887e-21
1.45887777949e-19
2.84477863185e-18
5.82703588104e-17
1.24880135629e-15
2.67951078306e-14
5.73337498854e-13
1.22708457211e-11
2.29808242271e-10
1.94067407843e-09
1.48767100334e-08
1.07076021521e-07
3.40313178134e-07
5.40161293853e-07
7.56439056225e-07
9.5183730457e-07
1.1661853329e-06
1.34069733008e-06
1.53302116305e-06
1.67753205775e-06
1.85584193028e-06
1.97850040102e-06
1.85298474934e-06
2.16861152965e-273
1.04817607314e-272
5.14816674355e-272
2.56983748138e-271
1.30395943327e-270
6.72667612208e-270
3.52849658167e-269
1.88238545238e-268
1.02149520868e-267
5.63968336874e-267
3.16845829789e-266
1.81177036846e-265
1.05465415027e-264
6.25117481764e-264
3.77358382135e-263
2.32052706384e-262
1.45399407148e-261
9.28514870097e-261
6.04472013799e-260
4.01272838354e-259
2.71705971196e-258
1.877063013e-257
1.32345212218e-256
9.52625455771e-256
7.00263153942e-255
5.25862485882e-254
4.03559989012e-253
3.16613272924e-252
2.54040374778e-251
2.08547190446e-250
1.75233673945e-249
1.50777170802e-248
1.32911094434e-247
1.20090240449e-246
1.11275490975e-245
1.05796985587e-244
1.03271102118e-243
1.03557139571e-242
1.06747165639e-241
1.1318888783e-240
1.23548252333e-239
1.38927610974e-238
1.61066908329e-237
1.92684492368e-236
2.38087503163e-235
3.04166844275e-234
4.02200501808e-233
5.51100818332e-232
7.83462128286e-231
1.15714469979e-229
1.77816741652e-228
2.84748223646e-227
4.75995853727e-226
8.32186105638e-225
1.52480660923e-223
2.93475987101e-222
5.94570819103e-221
1.27122772656e-219
2.87754164086e-218
6.9142406946e-217
1.76003075436e-215
4.70786405391e-214
1.35496764819e-212
4.23710203109e-211
1.44754059933e-209
4.67892741853e-208
7.50270744e-207
3.96057222398e-206
1.6934566016e-205
3.52588651997e-205
7.3445644198e-205
9.75934432138e-205
1.40792306057e-204
1.77733626361e-204
1.74923791825e-204
0
0
0
0
0
0
0
0
0
0
0
0
0
0
0
0
0
0
0
0
0
0
0
0
0
0
0
0
0
0
0
0
0
0
0
0
0
0
0
0
0
0
0
0
0
0
0
0
0
0
0
0
0
0
0
0
0
0
0
0
0
0
0
0
0
0
0
0
0
0
0
0
0
0
0
0
0
0
0
0
0
0
0
0
0
0
0
0
0
0
0
0
0
0
0
0
0
0
0
0
0
0
0
0
0
0
0
0
0
0
0
0
0
0
0
0
0
0
0
0
0
0
0
0
0
0
0
0
0
0
0
0
0
0
0
0
0
0
0
0
0
0
0
0
0
0
0
0
0
0
0
0
0
0
0
0
0
0
0
0
0
0
0
0
0
0
0
0
0
0
0
0
0
0
0
0
0
0
0
0
0
0
0
0
0
0
0
0
0
0
0
0
0
0
0
0
0
0
0
0
0
0
0
0
0
0
0
0
0
0
0
0
0
0
0
0
0
0
0
0
0
0
0
0
0
0
0
0
0
0
0
0
0
0
0
0
0
0
0
0
0
0
0
0
0
0
0
0
0
0
0
0
0
0
0
0
0
0
0
0
0
0
0
0
0
0
0
0
0
0
0
0
0
0
0
0
0
0
0
0
0
0
0
0
0
0
0
0
0
0
0
0
0
0
0
0
0
0
0
0
0
0
0
0
0
0
0
0
0
0
0
0
0
0
0
0
0
0
0
0
0
0
0
0
0
0
0
0
0
0
0
0
0
0
0
0
0
0
0
0
0
0
0
0
0
0
0
0
0
0
0
0
0
0
0
0
0
0
0
0
0
0
0
0
0
0
0
0
0
0
0
0
0
0
0
0
0
0
0
0
0
0
0
0
0
0
0
0
0
0
0
0
0
0
0
0
0
0
0
0
0
0
0
0
0
0
0
0
0
0
0
0
0
0
0
0
0
0
0
0
0
0
0
0
0
0
0
0
0
0
0
0
0
0
0
0
0
0
0
0
0
0
0
0
0
0
0
0
0
0
0
0
0
0
0
0
0
0
0
0
0
0
0
0
0
0
0
0
0
0
0
0
0
0
0
0
0
0
0
0
0
0
0
0
0
0
0
0
0
0
0
0
0
0
0
0
0
0
0
0
0
0
0
0
0
0
0
0
0
0
0
0
0
0
0
0
0
0
0
0
0
0
0
0
0
0
0
0
0
0
0
0
0
0
0
0
0
0
0
0
0
0
0
0
0
0
0
0
0
0
0
0
0
0
0
0
0
0
0
0
0
0
0
0
0
0
0
0
0
0
0
0
0
0
0
0
0
0
0
0
0
0
0
0
0
0
0
0
0
0
0
0
0
0
0
0
0
0
0
0
0
0
0
0
0
0
0
0
0
0
0
0
0
0
0
0
0
0
0
0
0
0
0
0
0
0
0
0
0
0
0
0
0
0
0
0
0
0
0
0
0
0
0
0
0
0
0
0
0
0
0
0
0
0
0
0
0
0
0
0
0
0
0
0
0
0
0
0
0
0
0
0
0
0
0
0
0
0
0
0
0
0
0
0
0
0
0
0
0
0
0
0
0
0
0
0
0
0
0
0
0
0
0
0
0
0
0
0
0
0
0
0
0
0
0
0
0
0
0
0
0
0
0
0
0
0
0
0
0
0
0
0
0
0
0
0
0
0
0
0
0
0
0
0
0
0
0
0
0
0
0
0
0
0
0
0
0
0
0
0
0
0
0
0
0
0
0
0
0
0
0
0
0
0
0
0
0
0
0
0
0
0
0
0
0
0
0
0
0
0
0
0
0
0
0
0
0
0
0
0
0
0
0
0
0
0
0
0
0
0
0
0
0
0
0
0
0
0
0
0
0
0
0
0
0
0
0
0
0
0
0
0
0
0
0
0
0
0
0
0
0
0
0
0
0
0
0
0
0
0
0
0
0
0
0
0
0
0
0
0
0
0
0
0
0
0
0
0
0
0
0
0
0
0
0
0
0
0
0
0
0
0
0
0
0
0
0
0
0
0
0
0
0
0
0
0
0
0
0
0
0
0
0
0
0
0
0
0
0
0
0
0
0
0
0
0
0
0
0
0
0
0
0
0
0
0
0
0
0
0
0
0
0
0
0
0
0
0
0
0
0
0
0
0
0
0
0
0
0
0
0
0
0
0
0
0
0
0
0
0
0
0
0
0
0
0
0
0
0
0
0
0
0
0
0
0
0
0
0
0
0
0
0
0
0
0
0
0
0
0
0
0
0
0
0
0
0
0
0
0
0
0
0
0
0
0
0
0
0
0
0
0
0
0
0
0
0
0
0
0
0
0
0
0
0
0
0
0
0
0
0
0
0
0
0
0
0
0
0
0
0
0
0
0
0
0
0
0
0
0
0
0
0
0
0
0
0
0
0
0
0
0
0
0
0
0
0
0
0
0
0
0
0
0
0
0
0
0
0
0
0
0
0
0
0
0
0
0
0
0
0
0
0
0
0
0
0
0
0
0
0
0
0
0
0
0
0
0
0
0
0
0
0
0
0
0
0
0
0
0
0
0
0
0
0
0
0
0
0
0
0
0
0
0
0
0
0
0
0
0
0
0
0
0
0
0
0
0
0
0
0
0
0
0
0
0
0
0
0
0
0
0
0
0
0
0
0
0
0
0
0
0
0
0
0
0
0
0
0
0
0
0
0
0
0
0
0
0
0
0
0
0
0
0
0
0
0
0
0
0
0
0
0
0
0
0
0
0
0
0
0
0
0
0
0
0
0
0
0
0
0
0
0
0
0
0
0
0
0
0
0
0
0
0
0
0
0
0
0
0
0
0
0
0
0
0
0
0
0
0
0
0
0
0
0
0
0
0
0
0
0
0
0
0
0
0
0
0
0
0
0
0
0
0
0
0
0
0
0
0
0
0
0
0
0
0
0
0
0
0
0
0
0
0
0
0
0
0
0
0
0
0
0
0
0
0
0
0
0
0
0
0
0
0
0
0
0
0
0
0
0
0
0
0
0
0
0
0
0
0
0
0
0
0
0
0
0
0
0
0
0
0
0
0
0
0
0
0
0
0
0
0
0
0
0
0
0
0
0
0
0
0
0
0
0
0
0
0
0
0
0
0
0
0
0
0
0
0
0
0
0
0
0
0
0
0
0
0
0
0
0
0
0
0
0
0
0
0
0
0
0
0
0
0
0
0
0
0
0
0
0
0
0
0
0
0
0
0
0
0
0
0
0
0
0
0
0
0
0
0
0
0
0
0
0
0
0
0
0
0
0
0
0
0
0
0
0
0
0
0
0
0
0
0
0
0
0
0
0
0
0
0
0
0
0
0
0
0
0
0
0
0
0
0
0
0
0
0
0
0
0
0
0
0
0
0
0
0
0
0
0
0
0
0
0
0
0
0
0
0
0
0
0
0
0
0
0
0
0
0
0
0
0
0
0
0
0
0
0
0
0
0
0
0
0
0
0
0
0
0
0
0
0
0
0
0
0
0
0
0
0
0
0
0
0
0
0
0
0
0
0
0
0
0
0
0
0
0
0
0
0
0
0
0
0
0
0
0
0
0
0
0
0
0
0
4.62978366839e-28
6.3114026637e-28
1.79636337648e-27
6.23297273476e-23
3.42461849015e-16
8.33148971887e-09
1.18476905725e-06
1.66080373155e-06
1.71286421189e-06
1.63491750896e-06
1.50007097766e-06
1.24326571194e-06
9.40765935087e-07
6.51689904564e-07
4.04398284122e-07
2.29536866336e-07
1.24314726546e-07
6.76630275066e-08
3.81934524448e-08
2.34631638411e-08
1.60098064263e-08
1.19738199616e-08
9.40940146769e-09
7.51725103997e-09
5.90269422819e-09
4.35437217334e-09
2.90997502566e-09
1.7159851988e-09
8.50739507769e-10
3.57314328847e-10
8.94334493458e-11
1.33173933523e-11
8.09314965608e-13
1.22463297914e-14
1.00472671138e-17
2.93625443692e-27
4.17574947392e-27
2.50180164271e-26
1.25994584859e-21
5.98081405786e-15
7.22100333489e-08
1.22703693415e-06
1.7400202408e-06
1.8059047386e-06
1.71598324935e-06
1.55815993189e-06
1.27569409113e-06
9.7266495897e-07
6.70100165818e-07
4.15544180586e-07
2.37429026443e-07
1.28559718903e-07
6.94647999018e-08
3.89879563888e-08
2.38659912706e-08
1.62325726379e-08
1.21113573187e-08
9.51529503798e-09
7.62673245666e-09
6.01593603977e-09
4.4696069877e-09
3.01803478816e-09
1.79770890823e-09
9.02421346907e-10
3.81033883251e-10
9.9893880755e-11
1.59610459333e-11
9.83601199689e-13
1.43819700653e-14
1.12556952591e-17
2.0735727215e-26
3.0780806441e-26
4.50382758317e-25
2.60365241837e-20
1.06338872233e-13
3.37902037238e-07
1.37705519144e-06
1.87405350956e-06
1.9173862172e-06
1.80920703467e-06
1.61838353342e-06
1.32250397342e-06
1.00434282308e-06
6.8641343364e-07
4.26932018293e-07
2.45008976446e-07
1.33130907502e-07
7.16169417966e-08
3.99446815585e-08
2.42939830644e-08
1.64625386274e-08
1.22657768235e-08
9.64293651244e-09
7.75185748959e-09
6.13891853181e-09
4.58117131333e-09
3.11685699694e-09
1.87139447885e-09
9.45433204039e-10
4.12332885801e-10
1.11038397245e-10
1.9465544893e-11
1.14239846994e-12
1.6976808138e-14
1.24351962248e-17
1.93271244573e-25
2.50406233122e-25
9.22004091483e-24
5.49265285961e-19
1.9300350232e-12
7.51102413101e-07
1.73829909666e-06
2.06458949489e-06
2.03284036773e-06
1.90574410205e-06
1.69430916313e-06
1.38316825665e-06
1.03773322365e-06
7.02915983029e-07
4.3825337571e-07
2.53153220991e-07
1.37622439487e-07
7.36974944032e-08
4.08525691551e-08
2.47094342754e-08
1.67190626392e-08
1.24643940716e-08
9.81926119058e-09
7.90357121944e-09
6.27752587554e-09
4.6986440314e-09
3.20939813686e-09
1.9388915228e-09
9.95834723158e-10
4.37615967222e-10
1.2174828748e-10
2.1620928666e-11
1.32768720371e-12
2.12104344404e-14
1.42088999948e-17
1.16591806724e-24
1.53449149297e-24
2.01210364328e-22
1.17835461688e-17
3.38308233933e-11
1.14235480597e-06
2.02657216588e-06
2.20077803484e-06
2.13615512447e-06
2.01501261995e-06
1.78806390019e-06
1.43088837957e-06
1.05381495262e-06
7.11851938958e-07
4.46561743001e-07
2.60732244789e-07
1.41764886353e-07
7.55318780357e-08
4.16437461849e-08
2.50878238554e-08
1.70008443926e-08
1.27223042115e-08
1.00562921244e-08
8.08522078744e-09
6.43176861648e-09
4.84581973815e-09
3.29652199271e-09
1.99982066665e-09
1.03200074091e-09
4.65295492122e-10
1.30771899988e-10
2.41557706991e-11
1.50738388541e-12
2.59822134416e-14
2.18654498433e-17
7.72815845315e-24
1.02005414544e-23
4.5761908134e-21
2.53438003059e-16
4.3496726069e-10
1.51973146959e-06
2.22188305783e-06
2.33574470644e-06
2.27752558315e-06
2.11540245312e-06
1.84161780958e-06
1.471529909e-06
1.07414750779e-06
7.2185953907e-07
4.56524981323e-07
2.67960379328e-07
1.45567410132e-07
7.70677051491e-08
4.24374138875e-08
2.54211615486e-08
1.72954290602e-08
1.30325278453e-08
1.03291769728e-08
8.28584842624e-09
6.59334285925e-09
4.96307695579e-09
3.38177838948e-09
2.04969134249e-09
1.0791602817e-09
4.92067534342e-10
1.40131909137e-10
2.63270182004e-11
1.66720680169e-12
3.17650480178e-14
3.95793750977e-17
5.35890609372e-23
7.14481710444e-23
1.06949350832e-19
5.44994797744e-15
3.55800930817e-09
1.71774414479e-06
2.36436459436e-06
2.46561194831e-06
2.37708534397e-06
2.21157418623e-06
1.90788628446e-06
1.50515617201e-06
1.0857970601e-06
7.317590988e-07
4.67403736161e-07
2.74417131687e-07
1.49151044844e-07
7.8382874382e-08
4.27353292861e-08
2.56847081103e-08
1.75317949765e-08
1.3271307822e-08
1.05482601576e-08
8.46963676452e-09
6.75198503015e-09
5.0397506856e-09
3.44317465321e-09
2.0872336806e-09
1.09693644702e-09
5.00513888758e-10
1.44545038815e-10
2.74596450673e-11
1.7402883677e-12
3.49550604635e-14
7.01684674095e-17
3.85079483543e-22
5.32447576053e-22
2.55905312527e-18
1.18148593415e-13
4.98221065172e-08
1.82751745855e-06
2.46704519871e-06
2.56294973478e-06
2.4581725278e-06
2.2859003606e-06
1.9498065797e-06
1.51788631921e-06
1.09155647102e-06
7.40628247615e-07
4.77477668262e-07
2.80403257873e-07
1.50284633949e-07
7.83999777233e-08
4.26491855831e-08
2.57236794311e-08
1.76790669722e-08
1.34442812417e-08
1.07302376107e-08
8.64193166677e-09
6.88033249152e-09
5.12070539078e-09
3.48237320717e-09
2.11353339784e-09
1.10712056639e-09
5.04528108263e-10
1.45124578752e-10
2.74758226292e-11
1.72820929658e-12
3.41629141968e-14
1.07232236398e-16
2.80794842472e-21
4.37456344069e-21
6.26172869588e-17
2.58273175931e-12
3.47566771296e-07
1.91183448528e-06
2.58770260309e-06
2.67537622317e-06
2.55810263521e-06
2.3658692587e-06
1.98863235635e-06
1.52605536081e-06
1.09371730563e-06
7.4643031739e-07
4.83208513397e-07
2.82778827222e-07
1.50685295881e-07
7.79095284364e-08
4.22681020463e-08
2.56457465235e-08
1.77739669113e-08
1.35871867081e-08
1.08883826127e-08
8.79753096764e-09
6.99779836055e-09
5.19577454407e-09
3.52155571611e-09
2.13423500266e-09
1.12054817998e-09
5.14117932266e-10
1.4387134651e-10
2.74665628681e-11
1.72225931681e-12
3.33626175301e-14
9.77305231398e-17
2.03615406033e-20
4.47943888258e-20
1.56664648951e-15
5.72055017936e-11
1.05288371701e-06
2.35411273489e-06
2.88878738229e-06
2.85248426618e-06
2.70046760375e-06
2.45683098528e-06
2.00761551695e-06
1.52370813728e-06
1.09039840247e-06
7.52543477193e-07
4.8768257571e-07
2.84186504408e-07
1.49564532823e-07
7.65212505462e-08
4.15614613827e-08
2.54829573859e-08
1.78444868408e-08
1.37298639149e-08
1.1044653325e-08
8.94775265249e-09
7.11687225989e-09
5.26958337867e-09
3.5747030428e-09
2.15707445109e-09
1.13897498884e-09
5.20049967309e-10
1.46695579646e-10
2.80793441616e-11
1.77039436831e-12
3.48319577462e-14
1.18728720118e-16
1.47135113224e-19
6.75106965381e-19
3.97399264494e-14
1.08933074765e-09
1.83526094804e-06
2.85284166834e-06
3.05166912001e-06
2.96877912659e-06
2.81547537538e-06
2.487671182e-06
2.007805148e-06
1.51380162987e-06
1.08738521837e-06
7.5629076754e-07
4.9216224917e-07
2.83305490443e-07
1.47202836329e-07
7.49336287814e-08
4.07903362944e-08
2.53219254107e-08
1.79288085083e-08
1.38912582306e-08
1.12188264324e-08
9.10404759318e-09
7.2527282888e-09
5.33595050853e-09
3.60874139747e-09
2.17475179029e-09
1.14929996529e-09
5.21257475405e-10
1.49740401378e-10
2.8406462575e-11
1.7897180583e-12
3.533801322e-14
1.28018493407e-16
1.06582645216e-18
1.45551773507e-17
9.94533824916e-13
1.64450328379e-08
2.34805670393e-06
3.07619995988e-06
3.17841920686e-06
3.06801121085e-06
2.87695539413e-06
2.51095649012e-06
2.00174198128e-06
1.50151567013e-06
1.08760212221e-06
7.64839324359e-07
4.93747833994e-07
2.80860392546e-07
1.44330714641e-07
7.26076939972e-08
4.00058941135e-08
2.51827506559e-08
1.8034114332e-08
1.40657715729e-08
1.13905677985e-08
9.24971615232e-09
7.32810492581e-09
5.38709070947e-09
3.63278920697e-09
2.18999579371e-09
1.16025592599e-09
5.28235275898e-10
1.4886971466e-10
2.86176732e-11
1.81937173354e-12
3.61998497487e-14
1.48433720562e-16
7.83524073337e-18
3.77258258288e-16
2.51752533832e-11
2.01769692174e-07
2.44249769725e-06
3.21859462312e-06
3.25691473665e-06
3.1362763806e-06
2.93720155267e-06
2.54710255418e-06
1.98479579837e-06
1.48868123753e-06
1.09253826071e-06
7.70261549404e-07
4.93929247417e-07
2.77127881084e-07
1.39897022486e-07
7.05608827835e-08
3.93051625627e-08
2.50811434081e-08
1.81600866395e-08
1.42370832615e-08
1.15489274081e-08
9.37310078154e-09
7.40255081075e-09
5.42379563198e-09
3.63670341565e-09
2.19819033652e-09
1.16290669574e-09
5.2505623083e-10
1.50340408328e-10
2.83419411293e-11
1.78741719065e-12
3.41574458312e-14
1.13523384021e-16
5.8959180107e-17
1.05411627285e-14
6.49022224513e-10
1.27820937366e-06
2.72044686664e-06
3.46630100528e-06
3.42390895285e-06
3.26967300911e-06
2.99304327053e-06
2.53181237631e-06
1.95356414408e-06
1.47822451031e-06
1.09756559331e-06
7.78470594035e-07
4.91819659842e-07
2.72327862475e-07
1.36524384904e-07
6.91007977175e-08
3.87710418957e-08
2.50579632925e-08
1.83130160515e-08
1.44184781985e-08
1.17051226905e-08
9.48453300066e-09
7.47324344808e-09
5.45955931099e-09
3.64942772924e-09
2.21561674651e-09
1.17478966871e-09
5.33611986885e-10
1.48517071454e-10
2.86041912681e-11
1.83355092882e-12
3.54606533174e-14
1.2578374451e-16
4.58640910185e-16
2.97051151173e-13
1.09996019828e-08
2.43712954666e-06
3.48825914847e-06
3.67878695838e-06
3.57570681642e-06
3.37910014798e-06
3.01273226738e-06
2.44781361516e-06
1.91237678247e-06
1.47412409158e-06
1.11316231657e-06
7.78745766402e-07
4.87308932229e-07
2.67794820157e-07
1.336966453e-07
6.78866767242e-08
3.85016868169e-08
2.51832664767e-08
1.85448682085e-08
1.46419238648e-08
1.18861799683e-08
9.6083608942e-09
7.54955575734e-09
5.49724873494e-09
3.66593143187e-09
2.22809782231e-09
1.17959667889e-09
5.3426701794e-10
1.50162484525e-10
2.86423010557e-11
1.8360204907e-12
3.50359742254e-14
1.20280265142e-16
3.83376940411e-15
8.35381514547e-12
1.61513433311e-07
2.80855034948e-06
3.64913107403e-06
3.76158759316e-06
3.62063425577e-06
3.39332342014e-06
2.95865965902e-06
2.37575313914e-06
1.8917741784e-06
1.48591715372e-06
1.12412761792e-06
7.78322710655e-07
4.82350319801e-07
2.63201606325e-07
1.3107602254e-07
6.69280095319e-08
3.84490195496e-08
2.54329529234e-08
1.88402448693e-08
1.48975791699e-08
1.20797140122e-08
9.74213569396e-09
7.63090390797e-09
5.54011067396e-09
3.70511481437e-09
2.25225942859e-09
1.18735365447e-09
5.50899943099e-10
1.45595719936e-10
2.90082147806e-11
1.90458382169e-12
3.73048734113e-14
1.35570879085e-16
3.8878064195e-14
2.40341238851e-10
1.31552615387e-06
3.14060278555e-06
3.80772563741e-06
3.82246274182e-06
3.64267563286e-06
3.35747431801e-06
2.8200050258e-06
2.32208037389e-06
1.89350562587e-06
1.51872621851e-06
1.13426085043e-06
7.76747833473e-07
4.76918892132e-07
2.57541416955e-07
1.28432816537e-07
6.62001584622e-08
3.8623118791e-08
2.58055023835e-08
1.92244372389e-08
1.52054655598e-08
1.23055454803e-08
9.90634153444e-09
7.72798725442e-09
5.59154666515e-09
3.75730623966e-09
2.26441669815e-09
1.19425981655e-09
5.55196526155e-10
1.46597886994e-10
2.93319797041e-11
1.95231273192e-12
3.96509760376e-14
1.86817127815e-16
5.7502006855e-13
4.83059077861e-09
2.77610386392e-06
3.96934411571e-06
4.09622585144e-06
3.89263677759e-06
3.62208454613e-06
3.17735354764e-06
2.7210998472e-06
2.3114569855e-06
1.94673200609e-06
1.5431073325e-06
1.14107338105e-06
7.74649474338e-07
4.70742782117e-07
2.52513914922e-07
1.25879176497e-07
6.57040196185e-08
3.90247169494e-08
2.62735341615e-08
1.96638064084e-08
1.55164214052e-08
1.25246850275e-08
1.00576981437e-08
7.81629695009e-09
5.63448539527e-09
3.7912544846e-09
2.28083562783e-09
1.19712095582e-09
5.57760565384e-10
1.47255219394e-10
2.89925183615e-11
1.95178625434e-12
3.99129670487e-14
1.96418824135e-16
1.26389440893e-11
7.27118078099e-08
3.17733735704e-06
4.04748764258e-06
3.94970981946e-06
3.70698641562e-06
3.37769238453e-06
3.01027701272e-06
2.70330614241e-06
2.37728157071e-06
2.00133235149e-06
1.57603390534e-06
1.15189563248e-06
7.72798414673e-07
4.6373423893e-07
2.46626523663e-07
1.23535657985e-07
6.56768753025e-08
3.98024424791e-08
2.72081646474e-08
2.01938297175e-08
1.59092377243e-08
1.27815465572e-08
1.02672360751e-08
7.92765168886e-09
5.71926636731e-09
3.85253151792e-09
2.33341902795e-09
1.19984495775e-09
5.60697184624e-10
1.47944923997e-10
2.86048206062e-11
1.94999664347e-12
4.05655920052e-14
2.22195207487e-16
3.56944745938e-10
7.51212558681e-07
2.69229864272e-06
3.59091015908e-06
3.5422684176e-06
3.39365883515e-06
3.2226554323e-06
3.00229107559e-06
2.8219302192e-06
2.49787157641e-06
2.09058735934e-06
1.61141211604e-06
1.16060246669e-06
7.650628569e-07
4.51689590171e-07
2.39491591796e-07
1.21499556638e-07
6.61154166231e-08
4.07135239004e-08
2.8113330719e-08
2.0693673196e-08
1.62919304101e-08
1.30088744779e-08
1.04118972668e-08
8.03063436999e-09
5.78017146189e-09
3.90151831191e-09
2.36593302978e-09
1.2012787047e-09
5.57576215684e-10
1.46516833102e-10
2.7364216842e-11
1.86375655849e-12
3.76929459077e-14
1.87123513017e-16
1.88456687276e-08
2.15072778307e-06
3.03100322251e-06
3.46102035221e-06
3.43551718294e-06
3.38327223658e-06
3.33434322571e-06
3.24749422683e-06
3.0581319263e-06
2.69903463074e-06
2.16010593955e-06
1.6265724461e-06
1.15272805053e-06
7.49284165632e-07
4.3787395143e-07
2.31872861039e-07
1.19588896524e-07
6.67093820551e-08
4.15809024103e-08
2.86983031232e-08
2.12973309022e-08
1.65966011043e-08
1.32269316807e-08
1.05737518944e-08
8.15827575277e-09
5.86421915945e-09
3.97922645035e-09
2.41394585511e-09
1.21087008131e-09
5.56023179319e-10
1.45188111902e-10
2.6103857573e-11
1.76492236262e-12
3.42211106677e-14
1.46261992862e-16
3.16188385307e-07
2.20316489982e-06
3.04942963276e-06
3.39565066785e-06
3.54353637435e-06
3.67337464933e-06
3.66377309321e-06
3.5529734565e-06
3.28151897893e-06
2.74713004774e-06
2.14847843885e-06
1.60547907246e-06
1.12768282975e-06
7.23029148227e-07
4.19766890869e-07
2.25029456038e-07
1.18938277469e-07
6.78231779788e-08
4.30120945675e-08
2.93979577147e-08
2.1779167707e-08
1.69492439677e-08
1.35150430672e-08
1.08042585188e-08
8.35576149004e-09
6.01855442978e-09
4.09849964777e-09
2.50076238547e-09
1.24120885947e-09
5.65437972044e-10
1.46658667231e-10
2.55148753631e-11
1.70561744938e-12
3.20715562402e-14
1.33384408177e-16
1.96569077854e-06
3.29225059741e-06
3.93440868449e-06
4.18426601906e-06
4.37498234023e-06
4.34428753689e-06
4.19839380232e-06
3.91018372649e-06
3.36614355796e-06
2.73939533548e-06
2.1130180752e-06
1.57737868564e-06
1.09942212034e-06
6.90279913868e-07
4.07811099896e-07
2.23794665503e-07
1.20985778112e-07
6.95101485061e-08
4.39271931514e-08
3.01431266643e-08
2.22317969337e-08
1.73188749758e-08
1.38521783922e-08
1.10803115058e-08
8.58542540007e-09
6.20963144157e-09
4.24531364444e-09
2.59273087034e-09
1.2800718423e-09
5.81553237567e-10
1.4975022464e-10
2.52966893638e-11
1.65430344937e-12
2.93611561234e-14
8.93508929828e-17
2.93211497169e-06
4.49971429342e-06
4.94987147295e-06
5.05485337987e-06
4.95560375881e-06
4.77900218718e-06
4.45023334891e-06
3.92301133035e-06
3.31232490639e-06
2.67497990329e-06
2.06628699223e-06
1.53519585237e-06
1.03995149413e-06
6.69416193448e-07
4.03592101162e-07
2.26484754708e-07
1.24462665785e-07
7.25678121658e-08
4.55169287557e-08
3.09343860296e-08
2.26758796961e-08
1.76510188328e-08
1.41335050093e-08
1.13531680314e-08
8.8619362376e-09
6.42099160601e-09
4.41075691407e-09
2.6977183172e-09
1.3295955287e-09
6.11013556591e-10
1.57404491571e-10
2.67748550579e-11
1.77599738896e-12
3.27595633223e-14
1.32819533052e-16
3.48581882888e-06
5.02058798638e-06
5.3668682346e-06
5.30178591803e-06
5.1203731999e-06
4.82094936651e-06
4.3310757228e-06
3.77322152173e-06
3.16974056797e-06
2.57261847917e-06
2.00983995047e-06
1.44242501514e-06
9.95878912068e-07
6.53363038716e-07
4.01007003086e-07
2.29143816518e-07
1.27341764963e-07
7.41750263803e-08
4.58079706622e-08
3.10100178081e-08
2.27771240881e-08
1.78254172231e-08
1.43081591141e-08
1.15498639221e-08
9.02223249557e-09
6.59835149452e-09
4.53389693892e-09
2.7918059645e-09
1.3649879304e-09
6.28677499266e-10
1.60551707341e-10
2.71265714637e-11
1.78969345346e-12
3.2656398914e-14
1.23040988367e-16
3.89135008761e-06
5.16741416833e-06
5.35346898957e-06
5.16809086709e-06
4.94418833311e-06
4.58262612581e-06
4.06782157512e-06
3.55078475345e-06
3.0153816314e-06
2.47975766784e-06
1.88533543901e-06
1.38544213555e-06
9.71894605041e-07
6.46130686577e-07
4.03014594647e-07
2.32921192326e-07
1.30621334357e-07
7.51616280781e-08
4.64475701663e-08
3.12377793522e-08
2.29343485185e-08
1.80069967265e-08
1.46415111429e-08
1.17755753782e-08
9.2070763685e-09
6.74153702608e-09
4.68798715851e-09
2.89458737901e-09
1.40544220597e-09
6.47870585894e-10
1.63743024607e-10
2.75666986112e-11
1.82207942835e-12
3.35566786989e-14
1.38020475856e-16
4.11204862884e-06
4.91885573467e-06
4.95157399059e-06
4.76134502325e-06
4.50185464969e-06
4.14660103859e-06
3.75630485309e-06
3.33788496695e-06
2.88443326222e-06
2.34532181012e-06
1.8210662028e-06
1.35357647765e-06
9.58514520588e-07
6.46928714376e-07
4.07448656179e-07
2.36665888467e-07
1.31931890663e-07
7.57588160374e-08
4.64372077199e-08
3.11671110224e-08
2.2929437632e-08
1.80985899055e-08
1.47168223381e-08
1.19313243462e-08
9.34610321993e-09
6.90504286858e-09
4.76778342213e-09
2.94156436466e-09
1.43055191614e-09
6.58085184482e-10
1.64174864935e-10
2.73863603943e-11
1.80879015089e-12
3.31748348987e-14
1.32790254011e-16
4.02420227055e-06
4.43453655856e-06
4.4493719353e-06
4.32017298705e-06
4.14750491138e-06
3.89558950072e-06
3.57495040595e-06
3.20331197358e-06
2.78290992142e-06
2.2944850681e-06
1.7930178571e-06
1.34320329231e-06
9.63729797793e-07
6.56607413283e-07
4.14893926116e-07
2.41164883722e-07
1.33801069885e-07
7.60491682452e-08
4.63204724132e-08
3.10830170357e-08
2.29538093524e-08
1.81990812172e-08
1.48772652854e-08
1.20871305642e-08
9.46473658154e-09
7.17230895014e-09
4.83955765014e-09
2.98277451589e-09
1.45004575152e-09
6.64129348792e-10
1.64447150275e-10
2.71057876034e-11
1.8036428104e-12
3.38271079776e-14
1.55292990797e-16
4.04920564351e-06
4.23258178511e-06
4.20107691327e-06
4.09725749788e-06
3.95149571758e-06
3.74384929151e-06
3.47824282935e-06
3.15368942286e-06
2.75194173874e-06
2.2781257622e-06
1.79269948501e-06
1.35448211792e-06
9.79497661822e-07
6.68860380989e-07
4.25464770922e-07
2.46366873031e-07
1.35138646098e-07
7.59425587111e-08
4.60163915343e-08
3.09411811433e-08
2.29664328551e-08
1.83045706124e-08
1.49904466654e-08
1.22149339879e-08
9.58572584727e-09
7.23874855425e-09
4.90350959447e-09
3.02987515075e-09
1.46563822457e-09
6.63997164794e-10
1.64114993271e-10
2.63738325716e-11
1.75612216565e-12
3.3051656086e-14
1.54688801232e-16
3.70368751732e-06
3.88946300954e-06
3.95638805791e-06
3.92754449474e-06
3.84665112227e-06
3.71796216085e-06
3.51184366021e-06
3.18976456324e-06
2.779258033e-06
2.30182622259e-06
1.81621450103e-06
1.37795707955e-06
9.9932947425e-07
6.81765164913e-07
4.32476381792e-07
2.48377840721e-07
1.35399933238e-07
7.53658744393e-08
4.55811435618e-08
3.07988926618e-08
2.29954680691e-08
1.83911240593e-08
1.5094234904e-08
1.23156179546e-08
9.67875989114e-09
7.35382765554e-09
4.9522264355e-09
3.03653260733e-09
1.47523874008e-09
6.56365557131e-10
1.63248549715e-10
2.53956754279e-11
1.69256062098e-12
3.21654066271e-14
1.64469285621e-16
3.91592003784e-06
4.12075851181e-06
4.22967007096e-06
4.19158452256e-06
4.08535845757e-06
3.92219566189e-06
3.64813865016e-06
3.27655209909e-06
2.84154129814e-06
2.34743173918e-06
1.85402039555e-06
1.40973547097e-06
1.02156654336e-06
6.9440578835e-07
4.37113080424e-07
2.50312963289e-07
1.35071985546e-07
7.4514290331e-08
4.51398305935e-08
3.07316029126e-08
2.30959871805e-08
1.85680625175e-08
1.52343234637e-08