/*--------------------------------*- C++ -*----------------------------------*\
| =========                 |                                                 |
| \\      /  F ield         | OpenFOAM: The Open Source CFD Toolbox           |
|  \\    /   O peration     | Version:  v1706                                 |
|   \\  /    A nd           | Web:      www.OpenFOAM.com                      |
|    \\/     M anipulation  |                                                 |
\*---------------------------------------------------------------------------*/
FoamFile
{
    version     2.0;
    format      ascii;
    class       volScalarField;
    location    "0.014";
    object      CO;
}
// * * * * * * * * * * * * * * * * * * * * * * * * * * * * * * * * * * * * * //

dimensions      [0 0 0 0 0 0 0];


internalField   nonuniform List<scalar> 
15860
(
9.60515614494e-23
5.83768410035e-22
3.58559916475e-21
4.08721310051e-20
2.4061481575e-19
1.5869971024e-18
1.09436752947e-17
7.82448712323e-17
5.67687928846e-16
4.10651037761e-15
2.94834060835e-14
2.12373980136e-13
1.55271789422e-12
1.15773354114e-11
8.79706330968e-11
6.81565398995e-10
5.38517675922e-09
4.33776210489e-08
3.55945508115e-07
2.97783389186e-06
4.74598792671e-05
0.000695051614285
0.00389049244698
0.0151897801336
0.0334798156052
0.0506290850867
0.075506105672
0.115762984303
0.140540258012
0.156039039827
0.187362042931
0.200768826948
0.214103602907
0.234921035681
0.244489461429
0.253054524532
0.26334541092
0.27032939445
0.275185352598
0.280331401622
0.281674652019
0.28214777979
0.287072583226
0.309370028367
0.318174039289
0.324292474967
0.330387897427
0.334692573863
0.339048244279
0.343058190503
0.346869307184
0.349686371137
0.352039450593
0.354434690718
0.356808968358
0.359304717002
0.361250373491
0.362423452317
0.361628350579
0.359440139726
0.360391467419
0.375997220635
0.376330589752
0.377773177147
0.379423705936
0.381326104851
0.383205813791
0.384115059045
0.385693782545
0.386316192843
0.387544332155
0.388022366149
0.389574155357
0.390067820439
0.384854168197
7.11348662588e-29
4.11571933149e-28
2.42184420032e-27
1.44960140296e-26
8.8271333184e-26
5.46925642226e-25
3.44862050988e-24
2.21332059261e-23
1.44610781823e-22
9.62038716323e-22
6.51779379801e-21
4.49788377007e-20
3.16228909889e-19
2.26552997665e-18
1.65426569872e-17
1.23141253348e-16
9.3468172946e-16
7.23579996419e-15
5.71448746547e-14
4.6052323831e-13
3.78780569579e-12
3.17521172312e-11
2.68782809655e-10
2.32047515373e-09
2.04634513013e-08
1.84401843431e-07
1.69878509238e-06
1.60043496328e-05
0.000154130443948
0.00248207017397
0.0131428835167
0.0378194123662
0.0514224024802
0.0636304547695
0.0760091023595
0.0876239894601
0.0982013988674
0.107998623519
0.117050784598
0.130664298724
0.142015234611
0.154110658583
0.165399328061
0.198629439002
0.212824243543
0.225130216512
0.241073368294
0.25212953786
0.261743720265
0.269308604372
0.276821310271
0.282599591993
0.287459614994
0.291718368875
0.296142095928
0.30020716663
0.30371592429
0.307250542423
0.308602229451
0.307239884046
0.305748943112
0.326055691611
0.3291350422
0.332821604078
0.33658962177
0.340265442673
0.34360953966
0.345423791038
0.347921729288
0.349123828814
0.350977333183
0.351834673776
0.353768322494
0.354681436309
0.349946180431
3.92336485579e-42
2.15150930742e-41
1.19941144549e-40
6.79829547583e-40
3.91838696195e-39
2.29699923074e-38
1.36972641799e-37
8.31001964902e-37
5.13031464126e-36
3.22359914946e-35
2.06194690735e-34
1.34289105186e-33
8.90679802487e-33
6.01747037496e-32
4.14204982767e-31
2.90553915894e-30
2.07755711648e-29
1.51461640836e-28
1.12612973312e-27
8.54136292991e-27
6.61058489454e-26
5.22212884558e-25
4.21167041123e-24
3.46908601694e-23
2.91930400924e-22
2.51071230052e-21
2.20761353294e-20
1.98528240157e-19
1.8265257033e-18
1.71414118284e-17
1.62378026708e-16
1.57317210335e-15
1.56150992351e-14
1.58934144605e-13
1.65923841945e-12
1.77796326082e-11
1.95672170433e-10
2.21311359205e-09
2.57404677732e-08
3.08055615826e-07
3.79588796576e-06
4.81613381777e-05
0.000538943020679
0.00299371263674
0.0159887114038
0.0361403310331
0.0520170302806
0.0665258816772
0.0805294605501
0.093020744881
0.104154686513
0.113677639251
0.12221700515
0.132348509637
0.140966037679
0.14875038906
0.155532746615
0.16286175389
0.169301229498
0.175307085889
0.177210609928
0.206058414434
0.215601118607
0.22371055073
0.233574768472
0.242692739624
0.25015958086
0.254951738883
0.260068818929
0.26325932578
0.266989117473
0.269229682241
0.272417107419
0.274380699121
0.270498118828
1.21083450303e-63
6.25673406941e-63
3.28648610438e-62
1.75511255862e-61
9.53096726612e-61
5.26380217187e-60
2.95710367782e-59
1.69010618184e-58
9.82924651607e-58
5.81789737974e-57
3.50537793003e-56
2.15036750886e-55
1.3433480138e-54
8.54780052918e-54
5.54122012472e-53
3.66049807697e-52
2.46468189597e-51
1.69189506849e-50
1.18437107381e-49
8.45703625885e-49
6.16145597895e-48
4.58148973318e-47
3.47789650072e-46
2.69617033666e-45
2.1352000069e-44
1.72797020164e-43
1.42952836336e-42
1.20939304872e-41
1.04671157874e-40
9.27127419545e-40
8.40729962893e-39
7.80898429233e-38
7.43304138693e-37
7.25413455845e-36
7.26232981659e-35
7.46232324549e-34
7.87461548583e-33
8.53896868856e-32
9.5209672742e-31
1.09232416328e-29
1.29041769074e-28
1.57077528296e-27
1.96370261103e-26
2.50142719999e-25
3.28785164302e-24
4.46372294585e-23
6.26990585178e-22
9.12122347952e-21
1.37634772689e-19
2.15732531777e-18
3.51782842415e-17
5.97706304865e-16
1.06004026114e-14
1.96640415591e-13
3.82312598348e-12
7.8079761899e-11
1.66844234598e-09
3.57057013981e-08
7.62045613834e-07
1.62649190169e-05
0.000303672334076
0.00255236315224
0.00896033647329
0.021717685182
0.0339212701875
0.0416198829919
0.0485389413086
0.0541030971993
0.059711765325
0.0640807522906
0.0686588805094
0.0720878229224
0.0761345607431
0.0788784244431
0.0762358877548
3.71577445661e-132
1.78654601086e-131
8.72895426216e-131
4.33472909839e-130
2.18818434332e-129
1.12305368241e-128
5.8611974393e-128
3.11113014833e-127
1.67986775971e-126
9.22865994512e-126
5.1593257829e-125
2.93578921574e-124
1.70068594332e-123
1.0031906109e-122
6.02696727911e-122
3.68866810626e-121
2.30037483576e-120
1.46215227803e-119
9.474630125e-119
6.26069460577e-118
4.21980904303e-117
2.90199928006e-116
2.03687926756e-115
1.4595917845e-114
1.0681593464e-113
7.98593305e-113
6.10173361062e-112
4.76627050245e-111
3.80775768298e-110
3.11243475221e-109
2.60408408732e-108
2.23113850006e-107
1.95847245667e-106
1.76214177156e-105
1.62600160061e-104
1.53955177143e-103
1.49661614006e-102
1.49462808622e-101
1.53441068661e-100
1.62043542094e-99
1.76164149635e-98
1.97302510222e-97
2.27836564339e-96
2.71485577217e-95
3.34140629235e-94
4.25213172073e-93
5.60078349554e-92
7.64464716065e-91
1.08261304044e-89
1.59286948375e-88
2.43843194104e-87
3.89002548102e-86
6.47822087952e-85
1.12834442074e-83
2.05973748612e-82
3.94959480193e-81
7.97210773403e-80
1.69821029084e-78
3.8300583111e-77
9.16985703729e-76
2.32590880094e-74
6.19994574715e-73
1.7786628359e-71
5.54457118623e-70
1.73388015291e-68
8.34001726169e-68
2.28284801372e-67
3.96597557906e-67
6.441906283e-67
8.1908722826e-67
1.04289709393e-66
1.14420373113e-66
1.29003334898e-66
1.39209244361e-66
1.38432586147e-66
8.71911317045e-148
8.6023772824e-148
8.53885705797e-148
8.47494360401e-148
8.34633764508e-148
8.25834307775e-148
8.17557510559e-148
8.10135830942e-148
8.0288202948e-148
7.93800663045e-148
7.84464003059e-148
7.75801317754e-148
7.68248453178e-148
7.61689740091e-148
7.54438950869e-148
7.47356235197e-148
7.40371739101e-148
7.33903992447e-148
7.272426744e-148
7.23419090469e-148
7.17840784288e-148
7.09153014163e-148
7.02746025862e-148
6.95096123565e-148
6.87453228541e-148
6.81512721534e-148
6.77001559287e-148
6.70719913461e-148
6.65705281215e-148
6.57719359739e-148
6.51728720897e-148
6.46968227074e-148
6.43021800869e-148
6.39318874315e-148
6.34146858339e-148
6.27562813288e-148
6.21484600294e-148
6.17050422478e-148
6.1415113664e-148
6.1198710334e-148
6.06931507153e-148
6.01834872551e-148
5.98606314345e-148
5.93840140917e-148
5.9017714427e-148
5.86525671018e-148
5.81600963015e-148
5.78201490056e-148
5.74998639952e-148
5.71766578011e-148
5.6847328935e-148
5.64456061298e-148
5.62884253751e-148
5.60302454687e-148
5.56291496454e-148
5.51863205125e-148
5.52261459503e-148
5.49879460723e-148
5.48233580589e-148
5.49111941708e-148
5.50200902749e-148
5.70312690666e-148
5.85559315025e-148
6.09715780562e-148
6.26998768465e-148
6.37881568503e-148
6.46487634199e-148
6.51005956745e-148
6.58006116671e-148
6.6288933763e-148
6.65191049895e-148
6.68673679768e-148
6.75754041487e-148
6.76406534935e-148
6.73979284596e-148
8.51750512082e-148
8.38675533969e-148
8.33148122253e-148
8.29589613403e-148
8.14709012935e-148
8.06025188517e-148
7.97799078659e-148
7.90717201037e-148
7.84341270171e-148
7.74974470244e-148
7.65392735306e-148
7.55709040376e-148
7.49175456674e-148
7.42291803923e-148
7.36121787027e-148
7.29132173514e-148
7.22179500825e-148
7.15465547552e-148
7.09111432578e-148
7.05865288752e-148
7.00810968106e-148
6.92261208617e-148
6.86352165012e-148
6.7896766927e-148
6.71273531628e-148
6.64841813227e-148
6.60920348528e-148
6.54893993597e-148
6.50135044171e-148
6.41768047349e-148
6.35671209904e-148
6.310829372e-148
6.27309133919e-148
6.24082581749e-148
6.19146400768e-148
6.12656431434e-148
6.06515506908e-148
6.02030622008e-148
5.99166576515e-148
5.97430766898e-148
5.92472494446e-148
5.87294350995e-148
5.84268641145e-148
5.7941354385e-148
5.75721586419e-148
5.72257935941e-148
5.67256454141e-148
5.64106323565e-148
5.60804092366e-148
5.58051081792e-148
5.54808290111e-148
5.51042833932e-148
5.49582125498e-148
5.4711019446e-148
5.43212586479e-148
5.38236107723e-148
5.38363572239e-148
5.35390288044e-148
5.33070479013e-148
5.32915108119e-148
5.29439716718e-148
5.29041043763e-148
5.25586989996e-148
5.26100328191e-148
5.23482820309e-148
5.23074132953e-148
5.20752744366e-148
5.18818015791e-148
5.18764622696e-148
5.1913617798e-148
5.1593987717e-148
5.15311146895e-148
5.18013211964e-148
5.15353187437e-148
5.15189530116e-148
8.3064327106e-148
8.15314387938e-148
8.09750812618e-148
7.96356282156e-148
7.93552705828e-148
7.85016273017e-148
7.76784425278e-148
7.69986264306e-148
7.6497324402e-148
7.55236581709e-148
7.46084095355e-148
7.35222405111e-148
7.29701885846e-148
7.22431478918e-148
7.16671879565e-148
7.09785288434e-148
7.01406187226e-148
6.96066742771e-148
6.87586175591e-148
6.86411815777e-148
6.82640357037e-148
6.74206642262e-148
6.68860474346e-148
6.61891816996e-148
6.54387261558e-148
6.46815274166e-148
6.43687231396e-148
6.37809892609e-148
6.32942415854e-148
6.25563226988e-148
6.18612146652e-148
6.14195868555e-148
6.10517214418e-148
6.07993077883e-148
6.03223441636e-148
5.96835645877e-148
5.90621705271e-148
5.86062235777e-148
5.83180895234e-148
5.81648480573e-148
5.77437378517e-148
5.71864245388e-148
5.6907208476e-148
5.6413772239e-148
5.60394739103e-148
5.57064114242e-148
5.51847368005e-148
5.49277178977e-148
5.45663447372e-148
5.4357166059e-148
5.4007520039e-148
5.36852820476e-148
5.35525486092e-148
5.33309048524e-148
5.2953993183e-148
5.23995033822e-148
5.23940559188e-148
5.21477221913e-148
5.19405517868e-148
5.19572772452e-148
5.15085598658e-148
5.1488914608e-148
5.11866672999e-148
5.12245489594e-148
5.1034868308e-148
5.0941307342e-148
5.05210236639e-148
5.04560774649e-148
5.04170690017e-148
5.05449810151e-148
5.02489242813e-148
5.018181627e-148
5.04174398531e-148
5.01467592094e-148
5.0154711073e-148
8.07540588956e-148
7.92801466074e-148
7.87419232432e-148
7.80796397069e-148
7.7162054235e-148
7.63271697918e-148
7.54927810926e-148
7.48190569116e-148
7.4199965321e-148
7.34936981367e-148
7.27640962268e-148
7.16736168134e-148
7.10161760349e-148
7.03510119074e-148
6.96554945769e-148
6.90107539759e-148
6.77352778536e-148
6.76283423867e-148
6.70178504287e-148
6.65976778965e-148
6.56664836721e-148
6.55323941663e-148
6.50515809138e-148
6.43928248998e-148
6.36662133862e-148
6.28304358181e-148
6.25573801368e-148
6.19251114243e-148
6.15433560704e-148
6.08318695846e-148
6.00965510381e-148
5.96700366293e-148
5.93035424964e-148
5.92213521346e-148
5.86565354596e-148
5.8044307952e-148
5.74034352573e-148
5.6948889618e-148
5.66552406545e-148
5.65302489226e-148
5.61269804904e-148
5.56170315661e-148
5.53339496471e-148
5.48334440982e-148
5.44514246941e-148
5.41220027214e-148
5.35645223961e-148
5.33909472521e-148
5.29873699937e-148
5.28589499137e-148
5.24407531837e-148
5.21926970815e-148
5.20641648247e-148
5.19039676785e-148
5.15336404625e-148
5.09287096239e-148
5.08908147311e-148
5.07315123134e-148
5.05169163651e-148
5.05708863146e-148
5.00198341847e-148
5.00016446072e-148
4.97990529225e-148
4.98043709603e-148
4.97170595994e-148
4.95269436651e-148
4.8934006114e-148
4.9016802971e-148
4.89132122297e-148
4.9123800051e-148
4.88650412921e-148
4.87884078334e-148
4.89567383036e-148
4.87250381421e-148
4.87497073482e-148
7.82827435024e-148
7.69535217414e-148
7.62281641599e-148
7.50360052677e-148
7.48807804968e-148
7.40718032095e-148
7.30659819882e-148
7.19342008164e-148
7.08196289251e-148
7.13362874781e-148
6.98519323618e-148
6.95469411875e-148
6.89127053113e-148
6.82679095911e-148
6.75650008019e-148
6.70900480082e-148
6.60478631758e-148
6.55024800675e-148
6.50102264469e-148
6.46268507172e-148
6.29904804657e-148
6.35518961812e-148
6.30502363168e-148
6.25328225539e-148
6.09290849398e-148
6.08892753683e-148
5.96457299023e-148
5.98097997027e-148
5.95892190085e-148
5.90753122657e-148
5.8271793234e-148
5.78565358634e-148
5.74727864682e-148
5.71423491269e-148
5.69551645377e-148
5.63427841509e-148
5.57003827047e-148
5.52240342184e-148
5.46392247364e-148
5.48369302135e-148
5.44988491408e-148
5.39208643406e-148
5.37016540248e-148
5.31814939152e-148
5.28044594686e-148
5.2488940017e-148
5.18818595887e-148
5.17625375957e-148
5.13501984575e-148
5.13193521309e-148
5.08086706e-148
5.06104804947e-148
5.04517015096e-148
5.04110259974e-148
5.00304553214e-148
4.94059542009e-148
4.93292853362e-148
4.9298678237e-148
4.90223751646e-148
4.91250115725e-148
4.84801377094e-148
4.84140678871e-148
4.83702396707e-148
4.83869612436e-148
4.83746153427e-148
4.80500804338e-148
4.73841950303e-148
4.75561521477e-148
4.73737651798e-148
4.76786759278e-148
4.74224689488e-148
4.73122853632e-148
4.74076120854e-148
4.72718841159e-148
4.72888032656e-148
7.45549382567e-148
7.46366131174e-148
7.39705578083e-148
7.33005601866e-148
7.24928616045e-148
7.1769312445e-148
7.09573753788e-148
7.02273017142e-148
6.93927777828e-148
6.79590350826e-148
6.82030277627e-148
6.73615964021e-148
6.67016055778e-148
6.60161478231e-148
6.54331583667e-148
6.50523588806e-148
6.39110374683e-148
6.33595956488e-148
6.28325749181e-148
6.27662028903e-148
6.17322615005e-148
6.14849538977e-148
6.09873463943e-148
6.06770329611e-148
5.9667996624e-148
5.90636416857e-148
5.8534501035e-148
5.75235901718e-148
5.71415534259e-148
5.72272700734e-148
5.63743180321e-148
5.59780209003e-148
5.55748571615e-148
5.46308643273e-148
5.42019752386e-148
5.45646778819e-148
5.39109275333e-148
5.34596865751e-148
5.30524678982e-148
5.20946292265e-148
5.28004482749e-148
5.21930328211e-148
5.1998431151e-148
5.14891139423e-148
5.10921274439e-148
5.03670478034e-148
5.01723516479e-148
4.99652428944e-148
4.96591212703e-148
4.95384110275e-148
4.92658336338e-148
4.89143553133e-148
4.87179074992e-148
4.88264695131e-148
4.84285490585e-148
4.78155573463e-148
4.77393400206e-148
4.78305648924e-148
4.73682770796e-148
4.75046165967e-148
4.68897902636e-148
4.66948481614e-148
4.68191031858e-148
4.69978139851e-148
4.6964728104e-148
4.64944595813e-148
4.59071904188e-148
4.60464496661e-148
4.57157908025e-148
4.62293051581e-148
4.59039644043e-148
4.57174412938e-148
4.57750556295e-148
4.57820703191e-148
4.57536489705e-148
7.29758426461e-148
7.19949027014e-148
7.1361518243e-148
7.07754915382e-148
6.99683357892e-148
6.92999365989e-148
6.84886443481e-148
6.78206636342e-148
6.72006299953e-148
6.65433569735e-148
6.59072595183e-148
6.50827431082e-148
6.44146936197e-148
6.37109038489e-148
6.30993715691e-148
6.1795735258e-148
6.17043447919e-148
6.11511749452e-148
6.04858755504e-148
5.90098827072e-148
5.96144665598e-148
5.93267106201e-148
5.87940165102e-148
5.86336679074e-148
5.76505595719e-148
5.70160427064e-148
5.65698520032e-148
5.60455308953e-148
5.57983809238e-148
5.53343292023e-148
5.44161132082e-148
5.40177559342e-148
5.37060697893e-148
5.35145361205e-148
5.31200976026e-148
5.27042119958e-148
5.20317513858e-148
5.15824400649e-148
5.12607429859e-148
5.10238716658e-148
5.10072768452e-148
5.03603079139e-148
4.97080486507e-148
4.97126907286e-148
4.93651205684e-148
4.82575564054e-148
4.84734468366e-148
4.77361516031e-148
4.79314787694e-148
4.73073668073e-148
4.70630757818e-148
4.66258101729e-148
4.69837800903e-148
4.71355914887e-148
4.62677607653e-148
4.61581640311e-148
4.54897607176e-148
4.62507324833e-148
4.57761995121e-148
4.59442687973e-148
4.52460087047e-148
4.48199308525e-148
4.50489939322e-148
4.53591696478e-148
4.5403095585e-148
4.48358064885e-148
4.34851536236e-148
4.44128276926e-148
4.37513111303e-148
4.36574393392e-148
4.4295968174e-148
4.3721710002e-148
4.40685798537e-148
4.42316882562e-148
4.39897449033e-148
6.8740624378e-148
6.92042481505e-148
6.85866198468e-148
6.81147905296e-148
6.72875036115e-148
6.66949772407e-148
6.58647579687e-148
6.52128351335e-148
6.46394506102e-148
6.40005956712e-148
6.23003976275e-148
6.26262526447e-148
6.2005357253e-148
6.12860695782e-148
6.08672024114e-148
6.04743926016e-148
5.9374405588e-148
5.88547200171e-148
5.72557010982e-148
5.70202274871e-148
5.71989962401e-148
5.7068903307e-148
5.645384167e-148
5.52103006012e-148
5.56050193934e-148
5.48354918243e-148
5.43805867494e-148
5.39351213057e-148
5.37179391818e-148
5.34814242729e-148
5.23740162132e-148
5.19382973623e-148
5.16085751666e-148
5.14960480623e-148
5.11054904055e-148
5.07426457691e-148
5.00458820757e-148
4.95836751716e-148
4.92537001608e-148
4.90018670388e-148
4.81143262847e-148
4.84894336776e-148
4.82644641516e-148
4.78279242656e-148
4.7608779684e-148
4.72745183431e-148
4.67860595594e-148
4.6456805285e-148
4.61734118461e-148
4.59852814838e-148
4.5707321319e-148
4.53761011235e-148
4.53155469037e-148
4.53658962647e-148
4.49524965955e-148
4.44637246158e-148
4.45969811501e-148
4.34837389709e-148
4.40006069852e-148
4.32124421437e-148
4.35109190615e-148
4.26016659236e-148
4.35178689575e-148
4.26641138992e-148
4.35444988549e-148
4.30707703609e-148
4.25316617824e-148
4.23665020079e-148
4.24628486276e-148
4.26085178105e-148
4.2581668974e-148
4.19913994805e-148
4.22459848455e-148
4.25708418262e-148
4.22569425571e-148
6.67404456438e-148
6.61331120655e-148
6.57332193006e-148
6.53082076158e-148
6.4423706382e-148
6.39460041001e-148
6.30866593658e-148
6.24423836117e-148
6.19249240173e-148
6.16704719987e-148
6.05035590204e-148
5.97264417645e-148
5.94394847023e-148
5.86597215693e-148
5.82586526539e-148
5.79503516145e-148
5.70173760827e-148
5.52687311389e-148
5.58587621626e-148
5.52106083981e-148
5.47677454787e-148
5.47094101796e-148
5.42486253631e-148
5.38330796369e-148
5.20861832964e-148
5.25247122565e-148
5.2097385061e-148
5.16391993939e-148
5.13995359139e-148
5.13371164044e-148
5.01741988332e-148
4.97439454729e-148
4.93879286447e-148
4.82771468575e-148
4.77897874672e-148
4.86683450946e-148
4.79429622793e-148
4.63278067131e-148
4.71238158857e-148
4.69869644944e-148
4.69591462675e-148
4.64460610322e-148
4.6267781724e-148
4.58139422247e-148
4.56287650887e-148
4.41875731403e-148
4.48635486983e-148
4.45170510315e-148
4.42520065119e-148
4.39898409621e-148
4.2821516474e-148
4.32877816487e-148
4.33840075335e-148
4.34445104505e-148
4.30926118854e-148
4.2589439069e-148
4.17485212878e-148
4.24307918922e-148
4.21526130981e-148
4.21404505115e-148
4.16080270534e-148
4.1326879567e-148
4.17320601034e-148
4.08279734246e-148
4.14468768195e-148
4.11559403692e-148
4.08614921698e-148
4.06253168602e-148
4.07207175246e-148
4.07641335289e-148
4.07573242569e-148
4.06290719242e-148
3.9885449036e-148
4.07606501121e-148
4.02713438924e-148
6.35628020904e-148
6.2900389375e-148
6.24900448138e-148
6.23971013414e-148
6.13269910935e-148
6.10288476331e-148
6.00868686106e-148
5.93959291692e-148
5.88943956787e-148
5.89959119431e-148
5.77335869862e-148
5.71148300233e-148
5.66169607906e-148
5.59445973521e-148
5.50548696682e-148
5.5357406468e-148
5.4700696799e-148
5.36791805768e-148
5.32870935761e-148
5.29260550786e-148
5.2284214341e-148
5.20910906895e-148
5.17454855275e-148
5.16467284391e-148
5.06206677836e-148
5.00464200171e-148
4.96468721115e-148
4.91457929302e-148
4.88571422479e-148
4.78171113144e-148
4.78224274746e-148
4.74068380256e-148
4.72247030092e-148
4.70329374319e-148
4.64201903049e-148
4.64006000547e-148
4.59637760029e-148
4.49969764252e-148
4.37226036469e-148
4.34579236483e-148
4.48017584762e-148
4.42560269779e-148
4.4137627208e-148
4.3655420141e-148
4.36420663861e-148
4.29454235682e-148
4.28798094404e-148
4.24331206506e-148
4.21809171467e-148
4.21100437486e-148
4.16702673081e-148
4.13526806026e-148
4.13431429725e-148
4.03637816214e-148
4.11016404133e-148
4.06340036136e-148
4.05578189613e-148
4.04391253625e-148
4.01270374714e-148
4.01029231462e-148
3.92937165139e-148
3.95371429723e-148
3.97398571052e-148
3.95384422528e-148
3.9502686218e-148
3.91201150086e-148
3.90926285764e-148
3.92586280523e-148
3.88632707543e-148
3.88095658137e-148
3.88359576504e-148
3.87616468444e-148
3.83642852391e-148
3.87789919121e-148
3.82031505356e-148
6.01685236368e-148
5.94307510033e-148
5.89225935923e-148
5.92812975734e-148
5.79250858916e-148
5.60252597084e-148
5.69370902743e-148
5.6340478329e-148
5.54976724821e-148
5.41286192335e-148
5.48790105695e-148
5.40951411495e-148
5.36466878167e-148
5.30748878364e-148
5.21891348195e-148
5.0911629683e-148
5.18605289989e-148
5.08886072665e-148
5.04093818868e-148
5.00969185088e-148
4.94798218707e-148
4.92945634701e-148
4.89078434896e-148
4.74639932316e-148
4.80757889521e-148
4.74044305968e-148
4.70172491494e-148
4.64763455737e-148
4.6382876569e-148
4.63712132823e-148
4.52800949426e-148
4.4847768292e-148
4.43408704625e-148
4.46102397658e-148
4.38786627012e-148
4.39475959573e-148
4.36561120051e-148
4.27415433279e-148
4.23826371679e-148
4.19780825414e-148
4.24802212508e-148
4.18833979921e-148
4.18437665949e-148
4.13023416742e-148
4.02187339598e-148
4.06404266871e-148
4.00648752377e-148
4.01838362531e-148
3.9921510202e-148
3.99110432044e-148
3.94727454385e-148
3.91238867604e-148
3.90161865901e-148
3.91105368296e-148
3.89496519087e-148
3.84596761543e-148
3.83730475042e-148
3.71970650566e-148
3.79477432383e-148
3.66413236326e-148
3.78835124558e-148
3.7432494334e-148
3.73326707063e-148
3.66020380655e-148
3.72611627931e-148
3.69690636046e-148
3.70729335011e-148
3.73096969833e-148
3.68466259556e-148
3.6688925565e-148
3.69797226569e-148
3.67699341567e-148
3.63115372901e-148
3.66199828047e-148
3.61880912556e-148
5.64973997329e-148
5.56902642169e-148
5.48176106805e-148
5.38027512892e-148
5.4937849446e-148
5.3718082029e-148
5.33763533659e-148
5.30923618223e-148
5.23983706513e-148
5.19603069329e-148
5.14956047837e-148
5.08447268879e-148
5.03624845551e-148
4.9940193944e-148
4.92281300328e-148
4.87269541125e-148
4.88580446186e-148
4.77492266319e-148
4.72465937382e-148
4.70662284827e-148
4.63392727004e-148
4.62484356141e-148
4.62135025071e-148
4.56500675134e-148
4.52003302961e-148
4.44711395654e-148
4.41558215848e-148
4.35139981204e-148
4.34292859029e-148
4.27101440644e-148
4.25956593084e-148
4.21169085205e-148
4.17951528148e-148
4.08658094857e-148
4.10752456557e-148
4.12458167354e-148
4.10509842238e-148
4.01498134511e-148
3.9756476361e-148
3.91968678874e-148
3.79739210503e-148
3.92682859935e-148
3.93387148096e-148
3.89045816288e-148
3.87661423928e-148
3.81616838527e-148
3.79365295284e-148
3.77180192721e-148
3.74350079532e-148
3.74985602183e-148
3.7064868508e-148
3.66852434462e-148
3.61143726453e-148
3.61869613729e-148
3.65934807292e-148
3.60690729017e-148
3.48405521038e-148
3.58444694337e-148
3.49815943524e-148
3.4987720385e-148
3.56584004197e-148
3.51329189018e-148
3.35169036416e-148
3.54338062621e-148
3.34155358025e-148
3.46182425336e-148
3.45687949806e-148
3.51230643011e-148
3.4614206232e-148
3.45702578219e-148
3.42680861968e-148
3.45938964787e-148
3.40996129173e-148
3.42590696841e-148
3.38548394743e-148
5.24427863511e-148
5.17144054017e-148
5.09588020013e-148
5.10654426783e-148
4.88767541578e-148
4.96716092323e-148
4.93566661837e-148
4.92928241557e-148
4.85112013656e-148
4.81279060238e-148
4.76442402253e-148
4.72492543767e-148
4.66355123586e-148
4.63729022255e-148
4.56123858024e-148
4.48996586066e-148
4.34281554236e-148
4.42509163068e-148
4.36651926026e-148
4.25930175715e-148
4.27980113082e-148
4.2723082063e-148
4.2901807556e-148
4.23319305287e-148
4.19473228895e-148
4.12262232197e-148
4.04839394026e-148
4.0198669825e-148
3.86680094664e-148
3.84577761464e-148
3.94904377283e-148
3.90001174808e-148
3.88742164271e-148
3.8804054946e-148
3.78972188174e-148
3.66609453482e-148
3.65706069096e-148
3.72080989877e-148
3.6880642224e-148
3.64858629436e-148
3.51956147567e-148
3.6318167349e-148
3.65119239762e-148
3.60438637998e-148
3.60152856726e-148
3.53523366308e-148
3.51462145434e-148
3.49553927751e-148
3.46362863937e-148
3.47937078045e-148
3.43698763809e-148
3.40224469417e-148
3.39286553556e-148
3.24192897544e-148
3.39592949391e-148
3.35229227545e-148
3.32815766894e-148
3.32747378015e-148
3.30447441449e-148
3.30121233154e-148
3.3153373329e-148
3.26822682401e-148
3.20304247647e-148
3.15756329951e-148
3.18771042682e-148
3.1265090617e-148
3.23727903242e-148
3.25573449008e-148
3.20763272389e-148
3.2134143561e-148
3.204486727e-148
3.20973939597e-148
3.16437676964e-148
3.163942779e-148
3.16817773266e-148
4.77192654508e-148
4.705919123e-148
4.58410376964e-148
4.45412887293e-148
4.58445868433e-148
4.49853617704e-148
4.45750700165e-148
4.49597560992e-148
4.39990436037e-148
4.37166617774e-148
4.32346400313e-148
4.29962265e-148
4.22561226749e-148
4.22786046589e-148
4.15378381607e-148
4.12135445945e-148
4.07114558454e-148
4.02430319923e-148
3.99066380717e-148
3.94458754224e-148
3.86995585658e-148
3.85635598655e-148
3.66384915683e-148
3.84685069575e-148
3.81101835034e-148
3.76941743475e-148
3.71733679917e-148
3.68629877036e-148
3.65290405402e-148
3.61653401113e-148
3.58643924102e-148
3.5359348263e-148
3.52224125358e-148
3.54312142184e-148
3.46434496548e-148
3.46296853866e-148
3.44684547327e-148
3.37982849318e-148
3.35374857387e-148
3.33961747774e-148
3.29711763604e-148
3.28719471778e-148
3.32430869976e-148
3.27075507055e-148
3.28392431144e-148
3.21077293694e-148
3.19033256464e-148
3.17518156963e-148
3.13722031889e-148
2.99752157535e-148
3.12368765707e-148
3.08629797806e-148
3.09957805313e-148
3.05368222104e-148
2.92765973401e-148
3.04679199615e-148
3.0193254772e-148
3.02264845964e-148
2.9994341115e-148
3.00177394559e-148
2.92735258104e-148
2.96800537481e-148
2.95063227536e-148
2.94558427231e-148
2.90597004072e-148
2.94461462282e-148
2.94379806295e-148
2.93063659576e-148
2.91441009895e-148
2.92289352938e-148
2.90406759854e-148
2.90962466846e-148
2.88002328335e-148
2.86399546598e-148
2.88256564446e-148
4.24135521498e-148
4.21875242137e-148
4.1074790572e-148
4.01251264533e-148
3.95945539567e-148
3.98023609362e-148
3.89582191009e-148
3.76766949244e-148
3.89136660723e-148
3.86867891777e-148
3.83470803829e-148
3.83235572386e-148
3.72192996749e-148
3.77011284096e-148
3.67908564449e-148
3.66065938748e-148
3.62631725471e-148
3.56462803259e-148
3.54159506885e-148
3.50644545967e-148
3.4222072081e-148
3.26104030255e-148
3.34903754587e-148
3.41405180848e-148
3.38427389793e-148
3.35040486413e-148
3.29367840397e-148
3.26747137831e-148
3.23800746013e-148
3.20182821197e-148
3.18285798295e-148
3.12636871526e-148
3.10467506109e-148
3.16201710881e-148
3.06157494891e-148
2.90042702736e-148
2.88281923461e-148
2.99660698925e-148
2.97311453436e-148
2.97111738202e-148
2.91595536387e-148
2.89685469611e-148
2.95973998978e-148
2.89362230825e-148
2.92831917673e-148
2.84557205625e-148
2.82591417265e-148
2.8165383829e-148
2.80212622674e-148
2.77905586815e-148
2.77283873377e-148
2.72804231246e-148
2.5904462118e-148
2.72198966586e-148
2.71831506398e-148
2.70341177488e-148
2.67298831816e-148
2.68176589746e-148
2.65955961798e-148
2.68182633932e-148
2.63524887591e-148
2.59924211829e-148
2.62024711705e-148
2.58043986565e-148
2.60294907995e-148
2.6141664109e-148
2.5786018301e-148
2.47994496536e-148
2.58262697541e-148
2.5589621629e-148
2.57662363692e-148
2.56862773152e-148
2.55999179875e-148
2.53305435147e-148
2.55669866547e-148
3.67114353389e-148
3.71536761826e-148
3.59839106443e-148
3.55649319465e-148
3.51362037864e-148
3.47224000673e-148
3.43182119942e-148
3.39685695396e-148
3.36996965876e-148
3.35941041902e-148
3.31264449915e-148
3.14372553707e-148
3.1833727308e-148
3.06426562261e-148
3.18742778755e-148
3.18250994657e-148
3.16661585473e-148
3.09034385471e-148
3.07795200702e-148
3.07057002888e-148
3.02562408577e-148
2.97543487718e-148
2.88099571992e-148
2.73578199809e-148
2.9449871728e-148
2.9239991573e-148
2.85890572506e-148
2.83834007113e-148
2.81402951252e-148
2.77282848983e-148
2.77021646042e-148
2.71071696272e-148
2.66563057527e-148
2.58222949417e-148
2.70149143185e-148
2.66259102627e-148
2.62815871261e-148
2.60231150327e-148
2.57715053298e-148
2.59434113691e-148
2.5284649302e-148
2.49063161269e-148
2.41405291305e-148
2.50162973659e-148
2.48051461941e-148
2.47153551842e-148
2.45146701597e-148
2.42177667257e-148
2.43555320161e-148
2.41193320078e-148
2.41484697153e-148
2.38779148715e-148
2.36720643851e-148
2.3626922836e-148
2.36164450324e-148
2.35310519536e-148
2.31765107395e-148
2.33274577013e-148
2.30952184503e-148
2.34980111537e-148
2.30162120946e-148
2.20575810414e-148
2.24389866124e-148
2.26658576131e-148
2.25922139974e-148
2.24251823264e-148
2.19362046284e-148
2.2111598893e-148
2.24195094003e-148
2.16552316231e-148
2.23788998499e-148
2.21880203892e-148
2.23482554048e-148
2.20011947269e-148
2.21496377588e-148
3.0436590714e-148
2.91829320425e-148
3.04367596725e-148
3.00841880356e-148
2.97047155821e-148
2.93431229285e-148