/*--------------------------------*- C++ -*----------------------------------*\
| =========                 |                                                 |
| \\      /  F ield         | OpenFOAM: The Open Source CFD Toolbox           |
|  \\    /   O peration     | Version:  v1706                                 |
|   \\  /    A nd           | Web:      www.OpenFOAM.com                      |
|    \\/     M anipulation  |                                                 |
\*---------------------------------------------------------------------------*/
FoamFile
{
    version     2.0;
    format      ascii;
    class       volScalarField;
    location    "0.014";
    object      CO2;
}
// * * * * * * * * * * * * * * * * * * * * * * * * * * * * * * * * * * * * * //

dimensions      [0 0 0 0 0 0 0];


internalField   nonuniform List<scalar> 
15860
(
1
1
1
1
1
1
1
1
1
1
1
1
0.999999999998
0.999999999982
0.999999999862
0.999999998929
0.999999991539
0.999999931844
0.999999440733
0.99999532118
0.999925430279
0.998907923736
0.993887194906
0.976133551579
0.947395523631
0.920449148272
0.881359089804
0.818101713823
0.779170013659
0.754819235257
0.705603873023
0.684538682869
0.663584683204
0.630874417634
0.6158392061
0.602380574171
0.586210009465
0.57523601304
0.567605954727
0.559520375079
0.557410835369
0.556668759426
0.548931756788
0.513896454224
0.500063493131
0.490449920162
0.480871549126
0.474107329939
0.467262839977
0.460961589247
0.454972720142
0.450545951208
0.446848339106
0.44308451895
0.439353792732
0.435432336505
0.43237523589
0.430532231236
0.431782230232
0.435221702971
0.43372845263
0.409208497006
0.408685437804
0.40641932459
0.403825983052
0.400836409627
0.397882628643
0.396453766579
0.393972930181
0.392994842736
0.391064927281
0.390313755593
0.387875327078
0.387099472659
0.395291723057
1
1
1
1
1
1
1
1
1
1
1
1
1
1
1
1
1
1
1
0.999999999999
0.999999999994
0.99999999995
0.999999999578
0.999999996354
0.999999967847
0.999999710261
0.999997330803
0.999974853348
0.999757824283
0.996100075042
0.979349390107
0.940576319779
0.919201934532
0.90001916788
0.880568266189
0.862317446714
0.8456968552
0.830302201747
0.816078296743
0.794686941716
0.776851494729
0.757846793151
0.740110404095
0.6878963985
0.665593210472
0.646257380646
0.621204951586
0.603831765963
0.588724374505
0.576837122396
0.565031723026
0.555951849612
0.548315024032
0.54162307007
0.534672070269
0.528284684993
0.522771422875
0.517217634662
0.515094333192
0.517236231933
0.519580855422
0.487673810718
0.482836647139
0.477045103801
0.471124620957
0.465348334166
0.460093411673
0.457242467832
0.453317173256
0.451428189434
0.448515563372
0.44716835827
0.4441298245
0.442694900803
0.450135734827
1
1
1
1
1
1
1
1
1
1
1
1
1
1
1
1
1
1
1
1
1
1
1
1
1
1
1
1
1
1
1
1
1
1
0.999999999997
0.999999999972
0.999999999693
0.999999996523
0.999999959556
0.999999515979
0.999994035846
0.999924328201
0.999153204807
0.995296234499
0.974878167894
0.943214707043
0.918267564979
0.895469384384
0.873464964219
0.853836815713
0.836341511967
0.821377640935
0.807959323436
0.792038970891
0.778497812518
0.766265902444
0.755608474108
0.744092097666
0.733973703377
0.724537197206
0.721547848896
0.676219527921
0.661226665264
0.648485831671
0.632986173801
0.618658300661
0.606925015975
0.599394739847
0.591353817231
0.586340353536
0.580479395282
0.576958657988
0.571949954725
0.568864375348
0.574965590305
1
1
1
1
1
1
1
1
1
1
1
1
1
1
1
1
1
1
1
1
1
1
1
1
1
1
1
1
1
1
1
1
1
1
1
1
1
1
1
1
1
1
1
1
1
1
1
1
1
1
1
1
1
1
0.999999999994
0.999999999877
0.999999997379
0.999999943899
0.999998802671
0.999974444496
0.999522868852
0.99598971709
0.985921454944
0.965876756752
0.946701615912
0.934604814705
0.923732790167
0.91498966632
0.906176535366
0.899311338783
0.892117473968
0.886729386352
0.880370494066
0.876058882951
0.880211299422
1
1
1
1
1
1
1
1
1
1
1
1
1
1
1
1
1
1
1
1
1
1
1
1
1
1
1
1
1
1
1
1
1
1
1
1
1
1
1
1
1
1
1
1
1
1
1
1
1
1
1
1
1
1
1
1
1
1
1
1
1
1
1
1
1
1
1
1
1
1
1
1
1
1
1
1
1
1
1
1
1
1
1
1
1
1
1
1
1
1
1
1
1
1
1
1
1
1
1
1
1
1
1
1
1
1
1
1
1
1
1
1
1
1
1
1
1
1
1
1
1
1
1
1
1
1
1
1
1
1
1
1
1
1
1
1
1
1
1
1
1
1
1
1
1
1
1
1
1
1
1
1
1
1
1
1
1
1
1
1
1
1
1
1
1
1
1
1
1
1
1
1
1
1
1
1
1
1
1
1
1
1
1
1
1
1
1
1
1
1
1
1
1
1
1
1
1
1
1
1
1
1
1
1
1
1
1
1
1
1
1
1
1
1
1
1
1
1
1
1
1
1
1
1
1
1
1
1
1
1
1
1
1
1
1
1
1
1
1
1
1
1
1
1
1
1
1
1
1
1
1
1
1
1
1
1
1
1
1
1
1
1
1
1
1
1
1
1
1
1
1
1
1
1
1
1
1
1
1
1
1
1
1
1
1
1
1
1
1
1
1
1
1
1
1
1
1
1
1
1
1
1
1
1
1
1
1
1
1
1
1
1
1
1
1
1
1
1
1
1
1
1
1
1
1
1
1
1
1
1
1
1
1
1
1
1
1
1
1
1
1
1
1
1
1
1
1
1
1
1
1
1
1
1
1
1
1
1
1
1
1
1
1
1
1
1
1
1
1
1
1
1
1
1
1
1
1
1
1
1
1
1
1
1
1
1
1
1
1
1
1
1
1
1
1
1
1
1
1
1
1
1
1
1
1
1
1
1
1
1
1
1
1
1
1
1
1
1
1
1
1
1
1
1
1
1
1
1
1
1
1
1
1
1
1
1
1
1
1
1
1
1
1
1
1
1
1
1
1
1
1
1
1
1
1
1
1
1
1
1
1
1
1
1
1
1
1
1
1
1
1
1
1
1
1
1
1
1
1
1
1
1
1
1
1
1
1
1
1
1
1
1
1
1
1
1
1
1
1
1
1
1
1
1
1
1
1
1
1
1
1
1
1
1
1
1
1
1
1
1
1
1
1
1
1
1
1
1
1
1
1
1
1
1
1
1
1
1
1
1
1
1
1
1
1
1
1
1
1
1
1
1
1
1
1
1
1
1
1
1
1
1
1
1
1
1
1
1
1
1
1
1
1
1
1
1
1
1
1
1
1
1
1
1
1
1
1
1
1
1
1
1
1
1
1
1
1
1
1
1
1
1
1
1
1
1
1
1
1
1
1
1
1
1
1
1
1
1
1
1
1
1
1
1
1
1
1
1
1
1
1
1
1
1
1
1
1
1
1
1
1
1
1
1
1
1
1
1
1
1
1
1
1
1
1
1
1
1
1
1
1
1
1
1
1
1
1
1
1
1
1
1
1
1
1
1
1
1
1
1
1
1
1
1
1
1
1
1
1
1
1
1
1
1
1
1
1
1
1
1
1
1
1
1
1
1
1
1
1
1
1
1
1
1
1
1
1
1
1
1
1
1
1
1
1
1
1
1
1
1
1
1
1
1
1
1
1
1
1
1
1
1
1
1
1
1
1
1
1
1
1
1
1
1
1
1
1
1
1
1
1
1
1
1
1
1
1
1
1
1
1
1
1
1
1
1
1
1
1
1
1
1
1
1
1
1
1
1
1
1
1
1
1
1
1
1
1
1
1
1
1
1
1
1
1
1
1
1
1
1
1
1
1
1
1
1
1
1
1
1
1
1
1
1
1
1
1
1
1
1
1
1
1
1
1
1
1
1
1
1
1
1
1
1
1
1
1
1
1
1
1
1
1
1
1
1
1
1
1
1
1
1
1
1
1
1
1
1
1
1
1
1
1
1
1
1
1
1
1
1
1
1
1
1
1
1
1
1
1
1
1
1
1
1
1
1
1
1
1
1
1
1
1
1
1
1
1
1
1
1
1
1
1
1
1
1
1
1
1
1
1
1
1
1
1
1
1
1
1
1
1
1
1
1
1
1
1
1
1
1
1
1
1
1
1
1
1
1
1
1
1
1
1
1
1
1
1
1
1
1
1
1
1
1
1
1
1
1
1
1
1
1
1
1
1
1
1
1
1
1
1
1
1
1
1
1
1
1
1
1
1
1
1
1
1
1
1
1
1
1
1
1
1
1
1
1
1
1
1
1
1
1
1
1
1
1
1
1
1
1
1
1
1
1
1
1
1
1
1
1
1
1
1
1
1
1
1
1
1
1
1
1
1
1
1
1
1
1
1
1
1
1
1
1
1
1
1
1
1
1
1
1
1
1
1
1
1
1
1
1
1
1
1
1
1
1
1
1
1
1
1
1
1
1
1
1
1
1
1
1
1
1
1
1
1
1
1
1
1
1
1
1
1
1
1
1
1
1
1
1
1
1
1
1
1
1
1
1
1
1
1
1
1
1
1
1
1
1
1
1
1
1
1
1
1
1
1
1
1
1
1
1
1
1
1
1
1
1
1
1
1
1
1
1
1
1
1
1
1
1
1
1
1
1
1
1
1
1
1
1
1
1
1
1
1
1
1
1
1
1
1
1
1
1
1
1
1
1
1
1
1
1
1
1
1
1
1
1
1
1
1
1
1
1
1
1
1
1
1
1
1
1
1
1
1
1
1
1
1
1
1
1
1
1
1
1
1
1
1
1
1
1
1
1
1
1
1
1
1
1
1
1
1
1
1
1
1
1
1
1
1
1
1
1
1
1
1
1
1
1
1
1
1
1
1
1
1
1
1
1
1
1
1
1
1
1
1
1
1
1
1
1
1
1
1
1
1
1
1
1
1
1
1
1
1
1
1
1
1
1
1
1
1
1
1
1
1
1
1
1
1
1
1
1
1
1
1
1
1
1
1
1
1
1
1
1
1
1
1
1
1
1
1
1
1
1
1
1
1
1
1
1
1
1
1
1
1
1
1
1
1
1
1
1
1
1
1
1
1
1
1
1
1
1
1
1
1
1
1
1
1
1
1
1
1
1
1
1
1
1
1
1
1
1
1
1
1
1
1
1
1
1
1
1
1
1
1
1
1
1
1
1
1
1
1
1
1
1
1
1
1
1
1
1
1
1
1
1
1
1
1
1
1
1
1
1
1
1
1
1
1
1
1
1
1
1
1
1
1
1
1
1
1
1
1
1
1
1
1
1
1
1
1
1
1
1
1
1
1
1
1
1
1
1
1
1
1
1
1
1
1
1
1
1
1
1
1
1
1
1
1
1
1
1
1
1
1
1
1
1
1
1
1
1
1
1
1
1
1
1
1
1
1
1
1
1
1
1
1
1
1
1
1
1
1
1
1
1
1
1
1
1
1
1
1
1
1
1
1
1
1
1
1
1
1
1
1
1
1
1
1
1
1
1
1
1
1
1
1
1
1
1
1
1
1
1
1
1
1
1
1
1
1
1
1
1
1
1
1
1
1
1
1
1
1
1
1
1
1
1
1
1
1
1
1
1
1
1
1
1
1
1
1
1
1
1
1
1
1
1
1
1
1
1
1
1
1
1
1
1
1
1
1
1
1
1
1
1
1
1
1
1
1
1
1
1
1
1
1
1
1
1
1
1
1
1
1
1
1
1
1
1
1
1
1
1
1
1
1
1
1
1
1
1
0.999999999863
0.996037939615
0.843359116649
0.726866837219
0.654306888065
0.608889244482
0.578652714396
0.545055222163
0.509041337827
0.48018041846
0.455161589181
0.426293301631
0.392840683432
0.357356945833
0.32455766782
0.296854002872
0.275239943121
0.25629338999
0.239531331335
0.223378312264
0.208739540925
0.19519642797
0.185335586159
0.179233967736
0.170755737903
0.166193077627
0.157571510211
0.152792487911
0.145599191024
0.141419969835
0.141000004226
1
1
1
1
0.999999997617
0.980130056336
0.827150966261
0.712984935475
0.644026820777
0.603318821046
0.573975106606
0.538852885124
0.503521732129
0.476465488249
0.452392487455
0.423247410789
0.389735186257
0.354651542508
0.322399024246
0.295170958949
0.274013455367
0.255386032718
0.238841823451
0.222734029926
0.208307208701
0.194965693754
0.185308287471
0.179297683016
0.170961426583
0.166248018181
0.15772935917
0.152986685529
0.145720565988
0.141437175254
0.140998988205
1
1
1
1
0.999999957863
0.952057576927
0.815984369946
0.69999488048
0.635715907707
0.599349333705
0.56931245247
0.531749768747
0.498209317281
0.473196478689
0.449311125307
0.419993681025
0.386083905239
0.351445149239
0.319729473798
0.293294641334
0.272650607036
0.254284486271
0.237930635584
0.221903551963
0.207669394891
0.19461041328
0.185204211012
0.179285264511
0.171072710185
0.166282690311
0.157839081109
0.153078927508
0.145753314736
0.141448787632
0.140998165245
1
1
1
1
0.999999239606
0.924312400941
0.7903826821
0.689683947986
0.629400396841
0.595111769854
0.560977188583
0.523749962789
0.492866194854
0.469914449075
0.445934626516
0.416135424106
0.382247460574
0.348095985265
0.316962694718
0.291403775507
0.271117435337
0.252888427411
0.236662778153
0.22090189685
0.206851973391
0.194153150924
0.185049837723
0.179217306532
0.171082795492
0.166215505085
0.157837662611
0.153021730727
0.145751147397
0.14145646156
0.140997486387
1
1
1
0.999999999998
0.99998674843
0.898966836471
0.765296364892
0.681451437432
0.624402893764
0.583694154648
0.553524999774
0.517767491169
0.489993787984
0.467565207103
0.442700707098
0.411851626118
0.378193175793
0.344686468262
0.314157348894
0.289512211499
0.269348812576
0.25105025495
0.234905845096
0.219713806988
0.20587301391
0.193511571847
0.184853756602
0.179098065719
0.170928230534
0.166002471936
0.157700644453
0.152878222606
0.145669017984
0.141440671354
0.14099671944
1
1
1
0.999999999952
0.999830732177
0.869224699049
0.746005631113
0.66737324804
0.611108257792
0.576782770418
0.545886322797
0.511163877403
0.485881202962
0.464904808242
0.438683461393
0.407444213523
0.373885175179
0.341188946119
0.310710194541
0.287637672337
0.267433641792
0.248842755952
0.232894146458
0.218402473139
0.204784228386
0.192979096267
0.184595657673
0.178922068589
0.170514157574
0.165558295823
0.157301101522
0.152641070719
0.145539811913
0.14140546778
0.140995115931
1
1
1
0.999999998949
0.99863997276
0.846886943808
0.726756112676
0.650149853269
0.601008645487
0.571622588122
0.539579073267
0.506128452452
0.482952992376
0.461702646183
0.433655709652
0.402915045992
0.36850466863
0.336296169979
0.307926141135
0.285236018627
0.265451306766
0.246920594859
0.231099618832
0.217013422565
0.203543142882
0.192478446759
0.184298486359
0.178688337022
0.169995177251
0.165047227415
0.156797275966
0.152281518581
0.145345638947
0.141336651804
0.140992234089
1
1
1
0.999999976882
0.989095419583
0.82493825826
0.70990605744
0.639412697383
0.59543483691
0.568011231582
0.534870688332
0.502512147876
0.480435430617
0.458071357212
0.428245983071
0.397726686537
0.365317937778
0.333346310586
0.305485125989
0.282983359647
0.263357166251
0.245095392761
0.229372516226
0.215443870502
0.202348893956
0.191766214528
0.183991926656
0.178372530581
0.169482227212
0.164575892667
0.156316361598
0.151829158974
0.145110798068
0.141240662556
0.140987571682
1
1
0.999999999993
0.999999486991
0.957451477816
0.807205482173
0.694598920776
0.630244607831
0.590521047127
0.564295377418
0.526527314942
0.498505145693
0.477022814112
0.453922800826
0.423442621467
0.393425655089
0.358912134557
0.328663202641
0.302245086664
0.280235770962
0.261101093117
0.24334686996
0.227809192207
0.2139429789
0.201237640815
0.191044936995
0.183652592125
0.178020104275
0.169039984258
0.163961515179
0.155711699833
0.151365662163
0.144880942785
0.141145544029
0.140980232214
1
1
0.999999999815
0.999988470807
0.918721392777
0.792302274673
0.671999896411
0.62040986932
0.587561858765
0.553557629734
0.5195459381
0.494952122766
0.474247629698
0.446823997854
0.418105724193
0.385935059342
0.354565101108
0.323419950484
0.298458580575
0.27777497063
0.258749083072
0.241443401276
0.226213456291
0.212476811625
0.200143836361
0.190349832177
0.183194987897
0.177653264657
0.168587544261
0.163420180274
0.155198631722
0.150937608607
0.144675196405
0.141061325456
0.140974951
1
1
0.999999995325
0.999777622787
0.877849955499
0.749256103925
0.667513261038
0.614427780081
0.580579470759
0.54469128999
0.514870816618
0.491978579269
0.470484109268
0.44190800536
0.409667059022
0.38025786144
0.347949854505
0.318896165694
0.295007032035
0.275078366106
0.256330815744
0.239387184731
0.224482263665
0.210941898794
0.198898564284
0.189673629877
0.182826543881
0.177281905753
0.168029889229
0.162923132402
0.154712057861
0.150500781378
0.144464572682
0.140976234241
0.140971112589
1
0.999999999997
0.999999883288
0.996595795634
0.835607537819
0.721234416597
0.646002904957
0.600655453688
0.570280064705
0.539072284523
0.511715785069
0.488937387709
0.465943499829
0.433372681257
0.404859816267
0.374728812054
0.34256291093
0.313641670518
0.292148814763
0.272528142946
0.253863765746
0.237235723514
0.222692243843
0.209376254205
0.19816964918
0.18902393456
0.182453925554
0.176903323358
0.167426748162
0.162247365923
0.154079880553
0.150058708034
0.144258008419
0.140895875344
0.14096938125
0.999999999997
0.999999999928
0.999997047769
0.974843829654
0.808100280471
0.693467531133
0.631119988441
0.589919029904
0.561219173446
0.535520120726
0.507893368109
0.485151258897
0.45670177099
0.4267396786
0.396581697498
0.3683004003
0.335410463891
0.310581631078
0.289806186793
0.270146975357
0.251334720665
0.235053386743
0.220877238878
0.207887172371
0.19725851869
0.188385509092
0.182070213556
0.176538926445
0.166885592735
0.161705875598
0.153554787229
0.149607370288
0.144042467562
0.14081435245
0.140970478996
0.999999999977
0.999999998046
0.999923812966
0.915610464814
0.799872018357
0.664747336942
0.617360596309
0.584806050256
0.555070191767
0.53100064471
0.504203021395
0.47961988148
0.450678737215
0.413310371365
0.391678648178
0.362911143805
0.332003439147
0.308417260825
0.28763186897
0.267872133056
0.249005405073
0.232921330883
0.219072543855
0.206516826397
0.19632360219
0.187776849435
0.181662628675
0.176165670979
0.165979974758
0.160988783194
0.152885013247
0.149196136758
0.143860803004
0.140750770815
0.140973380407
0.999999999821
0.999999945469
0.998705095886
0.859992764454
0.735373751225
0.658814036947
0.610625042738
0.578011256089
0.55079202906
0.524251696431
0.499445106736
0.472937530038
0.433771841976
0.406663724687
0.386270761507
0.357990232621
0.328128929976
0.305941523665
0.285484419787
0.265756651798
0.246788455886
0.230900733685
0.217324480824
0.205205756281
0.195428716756
0.187207870221
0.181244172741
0.175758858665
0.165359407157
0.160436520973
0.152340455024
0.148773601775
0.143666447937
0.140683951835
0.140978781298
0.999999998586
0.999998474344
0.982531727366
0.815928360248
0.704323560378
0.634892327657
0.597002094907
0.572073949773
0.545715883485
0.520231409913
0.493828874237
0.461776894585
0.423711289584
0.403014259613
0.381322267446
0.353003851627
0.324621498507
0.303471567707
0.283411972433
0.263788301173
0.244749943544
0.229010844342
0.215663468146
0.203891484087
0.194576579771
0.186680572201
0.180850543763
0.175102016464
0.164464414413
0.159636834462
0.151596899986
0.148362720425
0.143485468044
0.140623919745
0.140985291113
0.999999988015
0.999956278365
0.920588978186
0.78759096123
0.67720794332
0.621163237612
0.589956908477
0.567725898868
0.540070514322
0.514896824692
0.484575304988
0.442958687114
0.416685562632
0.39814014471
0.376230312117
0.347104414232
0.321154608051
0.301079067724
0.281397385509
0.261982155523
0.24287848877
0.227262445928
0.214114868417
0.20254634086
0.193789794322
0.186208380604
0.180514339075
0.174544454598
0.163530898241
0.159023596086
0.151123099536
0.147953654621
0.14329268791
0.140559213397
0.140993976956
0.99999988025
0.999124239767
0.861673390891
0.742363407345
0.65851776908
0.613450001371
0.587712061111
0.563019433086
0.535251374847
0.506136556105
0.463885784608
0.43498135337
0.412751111189
0.394011464578
0.370927762423
0.342687446646
0.317964503814
0.298809790317
0.279412364237
0.260320112313
0.241099613053
0.225647227884
0.212634285148
0.201223117998
0.193042052354
0.185755760863
0.180177433034
0.17402208619
0.162478317499
0.158109114774
0.150648923274
0.147504618447
0.143074038296
0.140483263076
0.141008324315
0.999998335406
0.987512632265
0.822723907356
0.706247601999
0.644602025099
0.610743491033
0.585401174364
0.556934726397
0.52692871033
0.490731280919
0.454547230914
0.427161220852
0.407998110263
0.389853607376
0.365446754445
0.337750130776
0.314761265525
0.296691510004
0.277380959722
0.257803638875
0.239363845586
0.223930854166
0.21114999436
0.199806107304
0.192387158591
0.185176406525
0.179711475886
0.17295754984
0.161315204281
0.157192253017
0.15018096495
0.147059775166
0.142852976402
0.140405977823
0.14102753263
0.999964439512
0.944120722871
0.823737947046
0.691062543749
0.642644861052
0.606700033152
0.581895068835
0.547717068049
0.511863370365
0.475910441118
0.440857757603
0.420584388308
0.403241827638
0.384466331314
0.35861866211
0.332926405374
0.311927684955
0.294654518607
0.275442808826
0.25523574064
0.237492038146
0.222024545214
0.209702244309
0.198990729661
0.1918324569
0.184815455143
0.179347276592
0.172256812656
0.160154125996
0.156246000087
0.149682218046
0.146588491607
0.142610219564
0.140320662067
0.141056818847
0.998310456689
0.886668633052
0.802651622074
0.680857417843
0.643276443512
0.593749690424
0.557160118123
0.521002105293
0.493867379942
0.454992550777
0.431917653831
0.417207593901
0.401587943577
0.380617258092
0.35401985136
0.329242734352
0.309628349771
0.292704802537
0.273440549479
0.253404561739
0.234747148095
0.220610820723
0.208492186866
0.198490072559
0.191442414357
0.184553009032
0.179021052649
0.17144902201
0.159099233759
0.155374394479
0.149196193409
0.146142362442
0.142375669555
0.140239397159
0.141094156173
0.973169962085
0.840918116313
0.741631289139
0.676001229307
0.633554309371
0.568801211569
0.533651602196
0.502949240894
0.474973005843
0.447938441379
0.430301225291
0.416696327355
0.39894460976
0.37528671229
0.348335381385
0.325906946957
0.307889030753
0.291026810891
0.270879499104
0.251604660634
0.233240205639
0.219430777613
0.207559958871
0.198159953839
0.191245611617
0.18439715291
0.178727180836
0.170770965031
0.158218331897
0.154646292871
0.14875902493
0.14575417763
0.142167816031
0.140169752534
0.141135347748
0.871764863889
0.758725053147
0.677760765612
0.632097118546
0.562051774911
0.5302572636
0.50470022675
0.481974654144
0.460145978365
0.444072219833
0.430810938147
0.416142635754
0.394931705244
0.367117264435
0.343259162345
0.323536908991
0.306646388158
0.28976202664
0.269824664962
0.24974893559
0.231962971558
0.218422278233
0.206965936673
0.197965608669
0.191181448677
0.184372151151
0.178477117099
0.170150210734
0.157509764192
0.154068499546
0.148376190017
0.145422039736
0.141984645248
0.140110558796
0.141180457555
0.823189522877
0.703638631965
0.636029806909
0.572359778512
0.537190460641
0.51455407583
0.493582558813
0.474386073186
0.460102470492
0.446647711943
0.432267378603
0.41229029051
0.384511882217
0.361100950391
0.339417381671
0.321857885574
0.305540539923
0.287605469234
0.267469999671
0.247572631402
0.23043946603
0.217465172322
0.206523977956
0.197860097784
0.191196405307
0.184428630103
0.178254857969
0.169583381355
0.157023534832
0.153674054903
0.148094855191
0.145194935481
0.141860702203
0.14007334992
0.141209015116
0.783332893716
0.668650958184
0.599573962654
0.554667427953
0.530107786843
0.509068674848
0.491749629395
0.477849786297
0.464806531556
0.449185029717
0.43106145046
0.402087157279
0.3778091534
0.356246950071
0.336059270764
0.320363674694
0.304106339873
0.284912005131
0.265712922883
0.246240964744
0.229160226369
0.216390131752
0.205894218727
0.197657175132
0.191118002335
0.184406336303
0.177805535498
0.168618485905
0.15655038587
0.153251231602
0.147783247973
0.144939607301
0.141712680498
0.140027887393
0.141251833563
0.750698503995
0.646402036786
0.58643202677
0.550138122404
0.531111420085
0.514772590129
0.499346030812
0.485015442696
0.46831442985
0.448758227102
0.420074454011
0.393162665045
0.371626329766
0.351150391416
0.333387502645
0.319206195742
0.302137774032
0.282867758026
0.262048129707
0.24381159889
0.227605056807
0.215384266246
0.205036890351
0.197474254882
0.191042939662
0.184321497197
0.177143856593
0.167574273266
0.156081118817
0.152811146985
0.147472242946
0.14468502245
0.141562701774
0.139981734604
0.141302028991
0.723402272023
0.639076779405
0.590577912879
0.561349636995
0.544488746439
0.527078945196
0.507865186876
0.488812091586
0.467072629178
0.438295344908
0.409997315066
0.386096337769
0.365444101244
0.346930139944
0.331489233024
0.318025571753
0.300548616603
0.278972012871
0.258590973523
0.241608214256
0.225994817836
0.21427595645
0.204386038155
0.197238529894
0.190876142399
0.184186166166
0.176472059695
0.166515405457
0.155588875292
0.152312066249
0.147156129803
0.144421114387
0.141405067816
0.139933451479
0.141364861677
0.721942186427
0.653086111027
0.604405600262
0.574714999542
0.554319966792
0.53037115742
0.508018905722
0.484009441858
0.456157538019
0.426841632845
0.400467301595
0.378539022596
0.36035703833
0.343991593459
0.330334811311
0.316920034241
0.298143389325
0.276142679267
0.256317741194
0.239383998513
0.224325845948
0.21326747477
0.203837095307
0.197025123479
0.190684183701
0.183868996995
0.175624742125
0.16515703078
0.155116492902
0.1517660978
0.146864134588
0.144165824654
0.141252410414
0.139887697382
0.141434931914
0.703944939733
0.64732589433
0.605084241316
0.575708725609
0.550393566268
0.521265806297
0.498975524698
0.469805299298
0.439695257295
0.412797397598
0.390729848778
0.372631725346
0.35669622865
0.342059052354
0.329134708452
0.31503316715
0.295260829865
0.273069482965
0.253758035924
0.237222867343
0.222730563674
0.21217905889
0.203373010781
0.196806346931
0.190538082885
0.18335488057
0.174617751852
0.163596495792
0.154679661701
0.151148155658
0.146572718689
0.143900610797
0.141091766845
0.139840932117
0.141523894353
0.689705927142
0.643354650162
0.595135257941
0.557550270593
0.52721332923
0.503816283972
0.468607011414
0.441047798386
0.419892382702
0.401393142245
0.384452152204
0.368940792352
0.354226294042
0.340752783455
0.328492786341
0.313382679116
0.291361496787
0.269915542303
0.251292573601
0.235233413138
0.221329688746
0.211466671726
0.203008461277
0.196609650048
0.190400342208
0.182356185362
0.173536265082
0.162342542624
0.15431559897
0.150478076086
0.146293610921
0.143645765091
0.140934736963
0.139797415118
0.141622779345
0.643688615038
0.602553674604
0.541138006091
0.50834486103
0.485878445745
0.467939252413
0.449247755283
0.431767471642
0.414854627171
0.398252585974
0.381762788908
0.366701780255
0.352552348736
0.339959456446
0.327967635056
0.310686123413
0.28833339843
0.26714361265
0.249158813174
0.233495778212
0.220119717797
0.210636863041
0.202717789672
0.196452087977
0.190246040004
0.181277468815
0.172412775469
0.160475218099
0.154020211823
0.149725921899
0.146023521059
0.143393196328
0.140772844491
0.139754556619
0.141743891049
0.603731745202
0.573686875532
0.517328936858
0.494188125831
0.477894307454
0.463032084604
0.445732074761
0.429530365566
0.412966264814
0.395948042697
0.379386835387
0.364803498245
0.351394293874
0.339516416308
0.326764304743
0.3073351368
0.284776384386
0.264652407685
0.2471935111
0.231908908305
0.219051091663
0.210243779902
0.202486335166
0.196316719788
0.189863106189
0.180303816598
0.171368504473
0.159283876197
0.153856423318
0.148922520283
0.145711024769
0.143162333455
0.140618211051
0.139716149041
0.141875766212
0.571323027567
0.536892452747
0.510569146265
0.493924506661
0.478517236511
0.461152190153
0.444025295956
0.427244484552
0.410198435867
0.393161280743
0.377171839061
0.363384610707
0.35071118624
0.338777954175
0.324786579442
0.303821377011
0.279690263008
0.262121733699
0.245339723866
0.230494204789
0.218140177766
0.209808196635
0.202302884187
0.196235370527
0.189393432853
0.179165557008
0.170148803131
0.157677223922
0.153775015806
0.148053720674
0.145339315458
0.142945487023
0.140468889086
0.139682428501
0.142020227517
0.582483931033
0.545333721773
0.517149562926
0.498354243389
0.48040755231
0.459461838849
0.44077884897
0.423367098092
0.406521312154
0.390265220365
0.3753057564
0.362395444423
0.350260826667
0.338128438894
0.321780633297
0.297396748283
0.277030617204
0.259943651749
0.243495714719
0.22913331003
0.217433203862
0.209545706219
0.202155659304
0.196358538234
0.188717001024
0.178303122485
0.168865809463
0.156481752305
0.152768346715
0.147705137201
0.144956039291
0.14275091188
0.140338577306
0.139658205477
0.142135927323
0.569623731848
0.534016772659
0.510208660421
0.490699045078
0.470888617302
0.452085555682
0.435013657251
0.418880348425
0.40342044965
0.388404889945
0.374423527592
0.362097875826
0.34989547138
0.336357643229
0.313519450077
0.292239212347
0.273830545163
0.257846985121
0.241794206511
0.227895690458
0.216835673936
0.209358130127
0.20210823615
0.196319376863
0.187535263277
0.176767180627
0.167584430721
0.155335820941
0.151848517191
0.147374356629
0.144624588393
0.14257231285
0.140217018893
0.139639549211
0.142246927056
0.560040015357
0.52621386938
0.504767676938
0.48547089046
0.466094181243
0.447589158139
0.431231119389
0.415966315541
0.401656709524
0.387455406131
0.374018955111
0.361699842958
0.348703805045
0.328154284611
0.307564830751
0.2889015151
0.271902970129
0.255853361012
0.240075144551
0.226891560616
0.216515287857
0.209221415028
0.202079438694
0.196236345277
0.186318484145
0.175419586089
0.166221781428
0.154240277152
0.150986019389
0.147053753835
0.144327935978
0.142401390151
0.140099416789
0.139625005442
0.142351245606
0.546775102335
0.517160747974
0.498924543617
0.47962579913
0.460385378411
0.443484237778
0.42849941245
0.414449340917
0.401129251983
0.387213921816
0.373807675241
0.360912826441
0.341011354673
0.321959154852
0.302872472043
0.285366966244
0.269587900319
0.2538863454
0.238224252114
0.226063065555
0.21629037692
0.209184112925
0.202110292793
0.195866617747
0.184746451333
0.173963513083
0.164137171624
0.153263177496
0.150219163543
0.1467614382
0.144068714832
0.142235182635
0.139983176674
0.139613592844
0.142468744729
0.538606176426
0.512625894913
0.494865083235
0.475401639735
0.457425262326
0.441653842873
0.427559914373
0.41420753301
0.400979715734
0.386655879322
0.372799208243
0.352151466194
0.334478092857
0.315846382901
0.298746187326
0.283042339065
0.267465742808
0.251919735968
0.237004623293
0.225351287315
0.216160726739
0.209200381677
0.202031348076
0.195597634037
0.183491279204
0.172760715496
0.162854586587
0.152527824996
0.149516374599
0.146484146516
0.143836432593
0.142070669012
0.139868128232
0.139605810965
0.142595796704
0.533675082914
0.509959180883
0.493004851284
0.47353432969
0.456579890022
0.441527872963
0.427965228303
0.414289359152
0.400292403985
0.384054725599
0.364712972501
0.346370465509
0.327907757135
0.311144741903
0.29570153307
0.280876255742
0.265454123099
0.250071609923
0.235950191704
0.225030650396
0.216198158593
0.209322752714
0.201923335907
0.194827428388
0.181651556023
0.171667120886
0.161270259644
0.151898170921
0.148878295776
0.146248665785
0.143654275793
0.141868461324
0.139755387351
0.139601903832
0.14273941724
0.528586682964
0.50791434542
0.4918698379
0.473001835554
0.456744824328
0.441844955117
0.427321933653
0.41252782532
0.395597186294
0.376491661409
0.35714578876
0.339198781416
0.322870794082
0.307716382511
0.293231206506
0.278817742614
0.263514669556
0.248568754365
0.235015208609
0.224807176152
0.216328149218
0.209390630445
0.201804092097
0.193049696532
0.179673510437
0.170291594566
0.159702329782
0.151390843201
0.14829246398
0.146026803864
0.143548122378
0.141569975356
0.139645476054
0.139602267633
0.14290161233
0.528347019696
0.509546538964
0.492634997992
0.473535255794
0.456199137342
0.439880616224
0.422979128408
0.405903723764
0.387750969983
0.368616872635
0.35016303934
0.333812533745
0.31857163939
0.304442423084
0.290921184451
0.277018573813
0.261768900135
0.247172460141
0.234357221996
0.224810583691
0.216574920706
0.209615876297
0.201318130074
0.191317087774
0.177787029692
0.168903840224
0.158207765774
0.151042066279
0.147750240926
0.146081839054
0.143219922112
0.141189356692
0.139552524703
0.139605435632
0.14307246947
0.52794164886
0.508023583746
0.490124619918
0.469186301001
0.449981302528
0.43114937509
0.412838908939
0.394979928472
0.377099328957
0.359313429054
0.343036602059
0.328696181408
0.314838166278
0.301912063774
0.289272456751
0.275501123144
0.26018413823
0.245867723118
0.234042484252
0.225031153967
0.216803579464
0.209507584675
0.200662770697
0.189703564542
0.175954695716
0.167507130005
0.156799177392
0.150869093367
0.147376234285
0.145777833725
0.143106460764
0.140817297121
0.139479519846
0.139619517965
0.143255590633
0.518084606304
0.494344409594
0.476124628631
0.455548158119
0.434263581761
0.415694476525
0.398747927581
0.38300483978
0.367751065073
0.352602053478
0.338724365345
0.325722475126
0.312609182295
0.300501496494
0.288263707333
0.273329120485
0.258395985732
0.245256915419
0.234141512632
0.225428583467
0.21709859147
0.209398457007
0.198948372069
0.18745654636
0.174032048561
0.166140986584
0.155485099098
0.150896742796
0.146945159268
0.145483354146
0.143058729736
0.14049860592
0.139328878451
0.139643781441
0.143442199391
0.487765733429
0.468406875287
0.452352516533
0.434383988163
0.418161891904
0.403494339409
0.389863992854
0.376841272749
0.363740503346
0.350124017532
0.337117396057
0.324370752206
0.311531086944
0.299985847656
0.286281749306
0.271696125384
0.257746921276
0.24502433814
0.234603179122
0.226087750653
0.217491271505
0.209218360521
0.197689571825
0.185200799605
0.172273400815
0.164900629187
0.154277178045
0.151146946632
0.146376694065
0.145255953572
0.142831209007
0.140318291671
0.139288793693
0.139685993333
0.143628772407
0.476009157653
0.458039090572
0.444318794993
0.429227545538
0.414372976792
0.400790424997
0.387918396616
0.375319428039
0.362408153344
0.349021527899
0.335828754471
0.322917457094
0.310625892066
0.297950352744
0.28431498289
0.27050357464
0.257110736334
0.244978497864
0.235171355279
0.226469624764
0.217594925352
0.208426470037
0.194518337971
0.182318213606
0.17046687234
0.163616400663
0.153632679735
0.150369540499