/*--------------------------------*- C++ -*----------------------------------*\
| =========                 |                                                 |
| \\      /  F ield         | OpenFOAM: The Open Source CFD Toolbox           |
|  \\    /   O peration     | Version:  v1706                                 |
|   \\  /    A nd           | Web:      www.OpenFOAM.com                      |
|    \\/     M anipulation  |                                                 |
\*---------------------------------------------------------------------------*/
FoamFile
{
    version     2.0;
    format      ascii;
    class       volScalarField;
    location    "0.014";
    object      dQ;
}
// * * * * * * * * * * * * * * * * * * * * * * * * * * * * * * * * * * * * * //

dimensions      [1 2 -3 0 0 0 0];


internalField   nonuniform List<scalar> 
15860
(
6.47319253036e-26
-4.30718619531e-12
-4.20903843353e-12
2.61106226038e-23
1.50570439663e-22
9.71408590884e-22
6.55898555991e-21
4.60476429707e-20
3.28824164161e-19
2.34141604886e-18
-3.47559188046e-12
1.16752070049e-16
8.36540731395e-16
6.11183131849e-15
4.5495374585e-14
3.45225833593e-13
2.67039558152e-12
9.34874232247e-12
9.59505164105e-11
7.84363085038e-10
1.08169014532e-08
1.50498422382e-07
-1.39199525796
-42.3004177001
-135.857790422
-254.422208808
-407.684655306
-567.858950172
-729.228472332
-863.46796119
-940.046575621
-879.960447551
-864.513207612
-838.809268329
-809.562734209
-780.590565566
-749.056050406
-722.674665006
-693.596167653
-659.249633889
-617.427201297
-564.849951336
-474.144503931
-404.552436853
-373.608703805
-335.960639791
-290.327729696
-257.602604942
-231.286371052
-209.909697224
-192.234673787
-177.630067734
-164.43046621
-152.949351839
-141.414660402
-130.677186555
-121.23227284
-112.706851569
-105.382242722
-98.3786996506
-85.373188314
-66.8668766565
-60.2833914227
-54.4037586568
-47.4376924739
-41.027421483
-35.4793694437
-30.5783877935
-25.9053960596
-21.5517975839
-17.3218452426
-13.2814019311
-9.31689202615
-5.58490936925
-1.92215231315
1.28887808842e-31
-4.60143026315e-12
4.22922039956e-30
-4.39322986732e-12
-4.29146760364e-12
9.01979880741e-28
-4.09256130112e-12
3.50905575281e-26
2.24705886964e-25
1.46473352524e-24
9.7208022345e-24
6.56941668555e-23
4.5218624878e-22
3.17074438718e-21
2.26542188524e-20
-3.27114759339e-12
1.22443227939e-18
9.26672887554e-18
7.15236740679e-17
-2.94235635226e-12
-2.85969984033e-12
-2.75009462448e-12
2.81633715768e-13
-3.26091674049e-13
9.42003660025e-12
9.92012113995e-11
8.84165898137e-10
8.06971673261e-09
7.471223565e-08
-2.70336682163e-06
-15.5865320075
-163.308949089
-238.256916613
-293.839433715
-350.57570114
-402.104107005
-445.553247438
-482.969578281
-511.450958843
-543.444346311
-576.471494542
-623.232123749
-646.854142082
-760.355879666
-734.354919977
-676.642156312
-663.037460765
-632.811925335
-598.195392419
-563.048802823
-527.533254163
-491.524440155
-460.354373388
-426.916892451
-393.26596114
-364.133510513
-337.598030105
-313.675126496
-291.262111669
-270.459474684
-236.935613694
-185.745594354
-165.003916914
-147.910616229
-127.36457157
-109.123165888
-93.5003042856
-79.9349130401
-67.2277316182
-55.5821914747
-44.4082625394
-33.9059790281
-23.6883276815
-14.0821628674
-4.8309011999
2.58428087727e-45
1.38802813885e-44
7.57823120132e-44
4.20644065606e-43
-4.60483614739e-12
-4.49727320742e-12
-4.39135683878e-12
-4.28707368328e-12
2.85604063787e-39
1.75662592719e-38
1.09975217915e-37
7.00964584243e-37
4.54957734096e-36
-3.69487602445e-12
-3.60161939782e-12
1.38984212386e-33
9.72028183979e-33
-3.33085908538e-12
5.03849416555e-31
3.73619509792e-30
2.82655672694e-29
-2.9902219835e-12
1.71953025821e-27
-2.82830976665e-12
-2.74938888482e-12
-2.67179869479e-12
8.19635189174e-24
-2.52053016693e-12
-2.44681096416e-12
5.77945874936e-21
4.8373134589e-20
4.41841623224e-19
-2.16420659491e-12
-2.096479717e-12
4.31837411219e-16
-1.96003110678e-12
4.83851394397e-14
5.32738548429e-13
4.25216150593e-12
3.75159247187e-11
4.84967472007e-10
5.88869009602e-09
-2.72361903404e-06
-5.19965271331
-39.6914364095
-116.824634783
-171.667567281
-218.296964965
-259.382712392
-291.976908267
-317.656265343
-335.001128695
-347.034820391
-356.800218488
-364.957648134
-369.302761157
-367.239399666
-365.143317526
-358.443330674
-354.573099385
-336.439034543
-350.399920294
-327.303443759
-292.040438828
-264.315487435
-241.801407301
-216.999506402
-191.049314031
-165.062036481
-138.962418721
-113.062628837
-87.4202353878
-61.9567856703
-37.0329681419
-12.4730618815
1.66099945933e-67
8.43026649502e-67
4.34849283181e-66
-5.12163615072e-12
1.21528647321e-64
6.58657846962e-64
-4.77094551139e-12
-4.65762409601e-12
1.16070927704e-61
6.73556127016e-61
3.9777656458e-60
2.39113370245e-59
1.46337171109e-58
9.1197173106e-58
5.78864508163e-57
3.74315102646e-56
2.46639253588e-55
1.65635944563e-54
-3.52381525869e-12
7.91724156008e-53
-3.33880312746e-12
-3.24860250732e-12
3.03752737953e-50
2.29939742486e-49
-2.98697576874e-12
-2.90268805507e-12
-2.81982485379e-12
-2.73836402457e-12
7.88221701079e-45
6.80167925649e-44
-2.50216961687e-12
-2.42609058092e-12
5.02841405041e-41
4.77247594951e-40
-2.20547931623e-12
4.63604277968e-38
-2.06451678696e-12
4.9982208356e-36
-1.92821143823e-12
6.00915222881e-34
6.87509013426e-33
-1.73203890668e-12
9.53932545799e-31
1.07761802691e-29
1.32553847433e-28
1.70812964728e-27
-1.42542870735e-12
-1.36691628532e-12
4.7162498983e-24
7.11371017733e-23
1.11425844064e-21
1.81500427872e-20
3.08009984563e-19
-1.03317981661e-12
1.01006242534e-16
1.95804514379e-15
-8.40631610866e-13
-1.47948876653e-13
-4.93507276976e-09
-1.66144985572e-06
-0.000575008320907
-3.01263639065
-13.2273298907
-30.9118438425
-45.7078338975
-51.3703437396
-53.9426878881
-53.1469939023
-50.9965882045
-46.3474526853
-40.7007701977
-33.2502688766
-25.1109663775
-15.6212775381
-5.03566003435
4.18854200228e-271
1.97865340809e-270
9.49648630855e-270
1.43844147164e-141
-5.52762445902e-12
1.15649824817e-267
-5.27123538924e-12
-5.14600220237e-12
-5.02272073006e-12
-4.90137352804e-12
-4.78194271328e-12
2.69134347389e-263
-4.54875654411e-12
8.82914870428e-262
5.19525011746e-261
2.06613852117e-132
1.90060593318e-259
-3.99799356273e-12
-3.8931988822e-12
3.80685025278e-129
-3.68879686719e-12
-5.11586039721e-128
1.47142419507e-254
-3.39482630324e-12
-3.30011255751e-12
5.37067166357e-252
4.00393614929e-251
-3.02546637586e-12
5.50871900058e-122
1.89282605203e-248
-2.76454287183e-12
1.28708565387e-246
-2.5978773321e-12
9.62468869547e-245
8.63523419754e-244
1.85524431323e-115
7.50194926366e-242
7.27236437989e-241
1.71627694759e-112
-2.05706768596e-12
-1.98483933047e-12
8.46716904623e-237
-1.84386996129e-12
-1.77507044211e-12
5.18291332762e-106
-1.64069362387e-12
-1.57505637017e-12
-1.51041287058e-12
-1.44673258977e-12
2.20267975467e-100
-1.32213849155e-12
-1.26116257489e-12
7.82946868667e-97
6.62730239272e-96
5.25888045279e-222
3.04734163747e-93
-9.68235454953e-13
3.6598877322e-218
3.74504857881e-89
1.71864730884e-215
1.67168231854e-86
-1.9739647634e-82
-6.29972639025e-74
-1.94062766458e-68
-5.8914473245e-66
-4.81036605202e-13
-6.90414139695e-65
-1.06321941787e-64
-1.5083916884e-64
-2.75925931997e-13
-2.25358341559e-13
-1.75007681119e-13
-1.24840312702e-13
-7.56230851163e-65
-2.49207168704e-14
-5.60917595435e-146
-6.6483491042e-12
-6.49659955148e-12
-5.23376964098e-146
-6.19994110101e-12
-4.99287536651e-146
-4.87519694223e-146
-4.75934368626e-146
-4.64529961367e-146
-5.49735206189e-12
-5.36337565451e-12
-5.23153221115e-12
-4.206881353e-146
-4.10162940691e-146
-3.99808240098e-146
-4.72505483541e-12
-3.79602796577e-146
-4.48403783666e-12
-3.60056386491e-146
-4.25091697323e-12
-3.41153011191e-146
-3.31937308407e-146
-3.22876110503e-146
-3.80756698551e-12
-3.05208563428e-146
-3.59692280825e-12
-2.88132722342e-146
-2.79811035469e-146
-2.71630465339e-146
-2.6358912622e-146
-3.10073771536e-12
-3.00648938771e-12
-2.9138358076e-12
-2.32763101155e-146
-2.25378646599e-146
-2.64514274972e-12
-2.10979171093e-146
-2.47343048614e-12
-2.38970560888e-12
-1.9026496823e-146
-1.83585729434e-146
-1.77021318223e-146
-1.70675875312e-146
-1.64620825487e-146
-1.58541969712e-146
-1.84040878929e-12
-1.46500622956e-146
-1.40545525443e-146
-1.62287666482e-12
-1.28859108798e-146
-1.23128658613e-146
-1.17472220862e-146
-1.11887938824e-146
-1.28075161921e-12
-1.21507557816e-12
-9.560858888e-147
-9.19066288464e-147
-9.211743387e-147
-9.25220711168e-147
-9.33604129736e-147
-8.37258331217e-13
-1.98237649543e-146
-2.68071539156e-146
-6.57152003055e-13
-5.98175508973e-13
-3.96275503793e-146
-3.83920948907e-146
-3.58508939961e-146
-3.66573057868e-13
-2.88065977935e-146
-2.52830393843e-13
-1.95442127799e-146
-1.40059502103e-13
-8.78845577184e-147
-2.79588679906e-14
-7.27573992055e-12
-5.86355448827e-146
-6.94851798169e-12
-5.59779146294e-146
-5.46792793564e-146
-5.34005505491e-146
-5.2141562671e-146
-6.17304286488e-12
-4.96821261166e-146
-5.87946328928e-12
-4.72995603535e-146
-4.61366452787e-146
-4.4992389206e-146
-4.3866597428e-146
-4.27590712374e-146
-4.16696080089e-146
-4.92343097162e-12
-4.79561425738e-12
-4.66991155265e-12
-3.74881965241e-146
-3.64858738469e-146
-3.55003182115e-146
-3.45313007615e-146
-3.35785890707e-146
-3.95857848444e-12
-3.84690917405e-12
-3.0815912506e-146
-3.62921185048e-12
-3.5231237639e-12
-2.81912926058e-146
-2.7345927942e-146
-3.21553317785e-12
-3.11645626587e-12
-2.48947355594e-146
-2.9232902252e-12
-2.33287038567e-146
-2.73655635496e-12
-2.18146173391e-146
-2.10763614043e-146
-2.03502558988e-146
-2.3813135085e-12
-2.29610008043e-12
-2.21225591478e-12
-2.12974567227e-12
-1.68921160659e-146
-1.62328964863e-146
-1.88986092943e-12
-1.49444408591e-146
-1.43146211337e-146
-1.36940032171e-146
-1.308228174e-146
-1.24791488475e-146
-1.18842948143e-146
-1.12974084079e-146
-1.29979930024e-12
-1.01463105122e-146
-9.58188774423e-147
-1.09425386689e-12
-8.47459983179e-147
-9.61160395582e-13
-7.39331725952e-147
-6.87090356444e-147
-6.34630256171e-147
-7.03017999469e-13
-5.30543844286e-147
-4.78798262584e-147
-5.15208806305e-13
-3.76250432358e-147
-3.92167586054e-13
-3.31176569642e-13
-2.24503268634e-147
-1.74359935821e-147
-1.49840424689e-13
-8.98066124315e-14
-2.99114474918e-14
-6.26550803696e-146
-6.12348363772e-146
-7.25646914449e-12
-7.08939138604e-12
-6.92486299382e-12
-6.76286311268e-12
-5.44505729715e-146
-6.44636277903e-12
-6.29181794962e-12
-5.06273110042e-146
-5.9900241008e-12
-5.84272759239e-12
-4.69833427157e-146
-5.55521288357e-12
-5.41494418088e-12
-4.35132134647e-146
-4.23941441523e-146
-4.12935280201e-146
-4.02111390688e-146
-3.91467474044e-146
-3.8100119393e-146
-4.49570400452e-12
-4.37299824828e-12
-3.50644254161e-146
-3.40864420541e-146
-4.01715954875e-12
-3.21798424374e-146
-3.78985963248e-12
-3.03373478148e-146
-3.57020688015e-12
-2.85568502222e-146
-3.35794250272e-12
-2.68361901878e-146
-2.59976107956e-146
-2.51731586111e-146
-2.95451327417e-12
-2.35654986483e-146
-2.76280108963e-12
-2.66932314138e-12
-2.1252781289e-146
-2.05070389421e-146
-1.97733807484e-146
-2.31042819134e-12
-2.22427611449e-12
-1.76418760757e-146
-2.05599826904e-12
-1.62756873825e-146
-1.56081025516e-146
-1.49504369107e-146
-1.73448787528e-12
-1.65702090593e-12
-1.5806404879e-12
-1.24125785005e-146
-1.43098209966e-12
-1.11948079451e-146
-1.05975692446e-146
-1.0007656135e-146
-1.14296316375e-12
-8.84847892311e-147
-1.00396040528e-12
-7.7146059178e-147
-7.15634081161e-147
-6.60337077981e-147
-6.0553712648e-147
-6.6844632227e-13
-4.97291587593e-147
-4.43778181696e-147
-4.73715030441e-13
-4.09651953023e-13
-3.45943044223e-13
-2.32988118284e-147
-2.19420409649e-13
-1.2906898193e-147
-7.73574499695e-148
-3.12455193931e-14
-6.56248508151e-146
-6.41365708916e-146
-6.26707328653e-146
-6.1227161883e-146
-5.9805678424e-146
-7.08306777782e-12
-5.70282334137e-146
-5.56718901459e-146
-6.58958142492e-12
-5.30229746089e-146
-5.17299941698e-146
-5.04577192785e-146
-5.96733872964e-12
-4.79744226312e-146
-5.67107227489e-12
-5.52655848807e-12
-4.43992629996e-146
-5.24462951708e-12
-4.21129813165e-146
-4.09982700075e-146
-3.99021835734e-146
-4.70835011554e-12
-3.77648780828e-146
-4.45351666457e-12
-3.56990132688e-146
-3.46922140671e-146
-4.08719213498e-12
-3.27295369621e-146
-3.85321228932e-12
-3.08329213503e-146
-2.99086864526e-146
-2.90001202214e-146
-2.81069337275e-146
-3.30211550656e-12
-2.63655287863e-146
-2.55167172082e-146
-2.46820992107e-146
-2.38613709422e-146
-2.79584919771e-12
-2.22603543038e-146
-2.1479444511e-146
-2.07111817539e-146
-1.99552488477e-146
-1.92113261275e-146
-1.84790915299e-146
-2.15358812971e-12
-2.06750463046e-12
-1.98271973625e-12
-1.89919330224e-12
-1.49818078213e-146
-1.73575398369e-12
-1.36531882006e-146
-1.30025972369e-146
-1.23606984753e-146
-1.42218358746e-12
-1.11016061618e-146
-1.27138982142e-12
-1.19734424783e-12
-9.26954567604e-147
-8.67255319253e-147
-9.80104886354e-13
-9.09182195607e-13
-8.38933337123e-13
-6.34367857941e-147
-5.77446230735e-147
-5.20973480786e-147
-5.6381374255e-13
-4.09231453514e-147
-4.29172577905e-13
-3.62429263231e-13
-2.96012525919e-13
-1.89555038547e-147
-1.63983603752e-13
-8.10435264552e-148
-3.2734965803e-14
-8.38099248808e-12
-6.75405571935e-146
-6.59962075149e-146
-6.44753869007e-146
-7.63750291862e-12
-6.15035543908e-146
-6.00521416177e-146
-5.86234561878e-146
-6.93889725116e-12
-6.77107141359e-12
-5.4471622134e-146
-5.31316818979e-146
-5.18133646841e-146
-5.05164365161e-146
-4.92406591057e-146
-5.8193683825e-12
-4.67515824927e-146
-5.52249220839e-12
-5.37773614362e-12
-4.31704019925e-146
-4.201629317e-146
-4.9578179761e-12
-3.97659085117e-146
-4.68950636479e-12
-3.7590812363e-146
-3.65308002173e-146
-4.30382002778e-12
-3.44644214942e-146
-3.34574737997e-146
-3.24676273642e-146
-3.1494583094e-146
-3.70343170761e-12
-3.58939283258e-12
-2.86732229793e-146
-3.36705659693e-12
-2.68706975387e-146
-3.15212165416e-12
-2.51279302873e-146
-2.94427807331e-12
-2.34423423788e-146
-2.74321036755e-12
-2.18113102169e-146
-2.10154209574e-146
-2.45361046167e-12
-2.36011437984e-12
-1.87022076762e-146
-2.1774296468e-12
-2.08815720771e-12
-2.00020841256e-12
-1.57788193604e-146
-1.50743789593e-146
-1.43797943892e-146
-1.36947087951e-146
-1.5788211603e-12
-1.2351598007e-146
-1.16928502132e-146
-1.10421563066e-146
-1.26113356123e-12
-9.76346731748e-147
-9.13473717807e-147
-1.03234525594e-12
-7.89665781113e-147
-8.83661811678e-13
-6.68194150375e-147
-6.08241098974e-147
-5.48759899451e-147
-4.89712944936e-147
-5.22761372995e-13
-4.52069539272e-13
-3.14800283884e-147
-2.57112696899e-147
-1.99670228658e-147
-1.72734695862e-13
-8.53686458227e-148
-3.44820152364e-14
-8.84687632851e-12
-8.64603822934e-12
-6.96632016308e-146
-6.80571688523e-146
-8.06170887148e-12
-7.87290957115e-12
-6.33865033842e-146
-6.18780305036e-146
-6.03933892912e-146
-7.14688739383e-12
-6.97253594446e-12
-5.60801062384e-146
-5.4688419552e-146
-5.33193559374e-146
-5.19726603122e-146
-5.06480733099e-146
-4.93453312663e-146
-5.8288732946e-12
-4.68043064105e-146
-5.52585019763e-12
-4.43473931732e-146
-4.31497754754e-146
-5.09010010551e-12
-4.08147773847e-146
-3.96768091726e-146
-3.85581300247e-146
-3.74584366571e-146
-4.41158977421e-12
-3.53147760719e-146
-3.42701843612e-146
-4.03150977083e-12
-3.22338909354e-146
-3.78874776333e-12
-3.02659619371e-146
-3.55411767472e-12
-2.83637653038e-146
-3.32729723146e-12
-2.65246188107e-146
-2.56278379746e-146
-2.47457921975e-146
-2.38781330396e-146
-2.30245093469e-146
-2.69038333135e-12
-2.13579504722e-146
-2.4914636063e-12
-1.97432542292e-146
-2.29865810001e-12
-1.81775199965e-146
-2.11161276622e-12
-2.02013832568e-12
-1.59142866924e-146
-1.84105996094e-12
-1.44580297515e-146
-1.66683820325e-12
-1.58143366409e-12
-1.49710497891e-12
-1.41380561297e-12
-1.09792918428e-146
-1.25010774471e-12
-9.64450225071e-147
-1.08996408226e-12
-1.01110685028e-12
-7.69336922158e-147
-7.05503792324e-147
-7.7882246058e-13
-5.79408034569e-147
-5.17066239879e-147
-4.5514224385e-147
-3.93596256235e-147
-4.03096550797e-13
-3.29229792329e-13
-2.10827441461e-147
-1.50394307479e-147
-9.01393407777e-148
-3.00224489798e-148
-9.42060138567e-12
-9.20662430812e-12
-8.99590474138e-12
-7.24681855252e-146
-7.07836663288e-146
-6.91253242766e-146
-6.74929215189e-146
-6.58862152573e-146
-6.43049579017e-146
-6.27488970558e-146
-7.42404757899e-12
-5.97113317212e-146
-7.06162681916e-12
-6.88482417955e-12
-6.71091566283e-12
-5.3926934796e-146
-5.25397914629e-146
-5.11756595167e-146
-4.98342458937e-146
-5.88357784808e-12
-5.72630249085e-12
-5.57167256733e-12
-4.46897660586e-146
-4.34574016914e-146
-5.12327742213e-12
-4.10549702658e-146
-4.83687318262e-12
-3.87334396245e-146
-4.56012038176e-12
-4.42526211139e-12
-3.53970259685e-146
-3.43224338802e-146
-3.32660394376e-146
-3.2227492371e-146
-3.78449048311e-12
-3.02025230533e-146
-2.92153840911e-146
-3.42530730253e-12
-2.7289982414e-146
-3.19565618896e-12
-3.08363768919e-12
-2.97343008385e-12
-2.86498759606e-12
-2.27443039065e-146
-2.18780674594e-146
-2.54978825954e-12
-2.44794211925e-12
-1.93582453992e-146
-2.24879687435e-12
-1.77401966709e-146
-1.69485381422e-146
-1.96072869216e-12
-1.53979581681e-146
-1.77521865299e-12
-1.68427768665e-12
-1.31478878184e-146
-1.50577734569e-12
-1.16936313156e-146
-1.09790105157e-146
-1.24573518892e-12
-1.16090989526e-12
-1.07692842483e-12
-8.19425853117e-147
-9.11294538733e-13
-6.84028863761e-147
-6.17143890249e-147
-6.67903728044e-13
-4.84790375915e-147
-4.19237335186e-147
-4.29358443552e-13
-2.89166889742e-147
-2.24564580611e-147
-1.94271891876e-13
-1.16437790919e-13
-3.19788775985e-148
-1.00728601356e-11
-8.11719067589e-146
-7.93130939836e-146
-7.74828725468e-146
-7.56809926609e-146
-8.96292880088e-12
-7.21612325682e-146
-8.54279488617e-12
-6.8751713044e-146
-8.13589911663e-12
-7.93733176869e-12
-7.7419722503e-12
-7.54978544016e-12
-6.06957132271e-146
-7.1747865873e-12
-6.99190145465e-12
-6.81204286546e-12
-5.47128128263e-146
-5.32786916067e-146
-5.18685754362e-146
-5.04821384675e-146
-4.91190505772e-146
-4.77789774051e-146
-4.64615804931e-146
-4.51665172733e-146
-5.32307802025e-12
-5.17131252849e-12
-4.14118446244e-146
-4.0202611531e-146
-3.90139405523e-146
-4.5896234847e-12
-3.6696818832e-146
-3.55676260636e-146
-3.44575114807e-146
-3.33660954318e-146
-3.9162600783e-12
-3.78829656378e-12
-3.66246014582e-12
-3.53870321226e-12
-2.81759750498e-146
-3.29723551163e-12
-2.62171665571e-146
-3.06350532038e-12
-2.43205431733e-146
-2.83711899567e-12
-2.24828371672e-146
-2.15850455009e-146
-2.07007389565e-146
-2.40477758096e-12
-1.89708995867e-146
-2.19801028471e-12
-1.72899330611e-146
-1.64667094908e-146
-1.56544188599e-146
-1.4852628628e-146
-1.70520444484e-12
-1.32788099285e-146
-1.25059073977e-146
-1.17417572981e-146
-1.3322924849e-12
-1.24158413997e-12
-9.49740414593e-147
-1.06281483954e-12
-8.0368081128e-147
-7.31586289042e-147
-6.60055512557e-147
-5.89043527257e-147
-5.18505288139e-147
-4.48395670335e-147
-4.59222858177e-13
-3.09281434055e-147
-2.40186228676e-147
-1.71338486463e-147
-1.24538369234e-13
-3.42037082325e-148
-8.95933146602e-146
-1.06181538426e-11
-1.03748686229e-11
-8.35747444976e-146
-8.16302969032e-146
-7.9716255496e-146
-7.78323332389e-146
-9.21408932515e-12
-7.41536718849e-146
-7.23583326101e-146
-7.05919123227e-146
-6.88540981793e-146
-8.1428064839e-12
-6.54630123009e-146
-6.38090902751e-146
-6.21824739253e-146
-6.05828261351e-146
-5.90098050634e-146
-5.74630642935e-146
-6.78427045423e-12
-6.6029388775e-12
-6.42466505552e-12
-5.1531817014e-146
-5.01111237245e-146
-4.87145385601e-146
-5.74125594625e-12
-4.59921805158e-146
-5.41672485496e-12
-4.3361678066e-146
-4.20798975208e-146
-4.08199029674e-146
-3.95812937977e-146
-3.83636657803e-146
-4.50729687019e-12
-3.59897181059e-146
-4.22424158189e-12
-4.08625536863e-12
-3.95056207485e-12
-3.81711017765e-12
-3.68584777252e-12
-2.9328293305e-146
-3.42968194612e-12
-2.72499226755e-146
-3.18164200445e-12
-3.06053565144e-12
-2.42535933377e-146
-2.32853650313e-146
-2.70822189458e-12
-2.13920307824e-146
-2.04660162052e-146
-2.37126538888e-12
-2.26210084802e-12
-1.77650821748e-146
-1.6888933342e-146
-1.94328538294e-12
-1.83971778393e-12
-1.73740747162e-12
-1.63629722525e-12
-1.26683835323e-146
-1.18530100598e-146
-1.10461069547e-146
-1.02471961922e-146
-1.14673060821e-12
-1.05160845188e-12
-9.57280689989e-13
-7.12187038058e-147
-6.35570652947e-147
-5.59464142615e-147
-4.83818936911e-147
-4.08586387772e-147
-3.33717780752e-147
-3.14295705277e-13
-1.84877242881e-147
-1.10807618791e-147
-3.69065665069e-148
-9.7630135788e-146
-9.54086627213e-146
-9.32213782584e-146
-1.10440636224e-11
-8.89481558331e-146
-8.68615939876e-146
-8.48079731553e-146
-8.27869675123e-146
-8.07982457809e-146
-9.56132148918e-12
-7.69163018475e-146
-7.50223903353e-146
-7.31593841238e-146
-7.13269255289e-146
-6.95246517624e-146
-6.77521949847e-146
-6.6009182409e-146
-7.79725967787e-12
-6.26099742194e-146
-7.39193857277e-12
-7.19437789957e-12
-5.77223951191e-146
-6.80921580905e-12
-6.62151653157e-12
-5.30787500924e-146
-5.15831724638e-146
-5.01130524307e-146
-4.86679669915e-146
-4.72474889988e-146
-4.58511871933e-146
-4.44786263887e-146
-5.2304166913e-12
-4.18029672097e-146
-4.04989790383e-146
-3.92169524135e-146
-4.60308078083e-12
-3.6716963887e-146
-4.30494992399e-12
-4.15957342988e-12
-4.01658071284e-12
-3.19603115222e-146
-3.08191076312e-146
-2.96961375047e-146
-3.46729940017e-12
-2.7502974491e-146
-3.2054583881e-12
-2.53769456461e-146
-2.95152182495e-12
-2.33141301612e-146
-2.23051907611e-146
-2.58439076701e-12
-2.03297538413e-146
-1.93622514352e-146
-1.84075527709e-146
-1.74651500422e-146
-2.00518822264e-12
-1.89369705843e-12
-1.47066095305e-146
-1.67456718675e-12
-1.29196655854e-146
-1.46015628362e-12
-1.35456311317e-12
-1.03070195449e-146
-9.45212514442e-147
-1.04347339731e-12
-9.41461604359e-13
-8.40185949732e-13
-6.0985055755e-147
-5.27395686014e-147
-5.4013595888e-13
-3.63778782717e-147
-3.42608567253e-13
-2.44403773365e-13
-1.46485711681e-13
-4.02315662292e-148
-1.08182764579e-145
-1.05719534596e-145
-1.25267915082e-11
-1.00906922554e-145
-9.85568424159e-146
-9.62437707948e-146
-1.13956775398e-11
-1.11240081295e-11
-8.95229384547e-146
-8.73542032768e-146
-1.03349358159e-11
-8.31217331485e-146
-8.10572075261e-146
-7.90266186249e-146
-7.70295574611e-146
-7.5065609747e-146
-7.3134355945e-146
-7.1235371277e-146
-6.93682259143e-146
-6.75324849162e-146
-6.57277083649e-146
-6.39534514755e-146
-7.54428817162e-12
-7.33635741646e-12
-7.13196255228e-12
-6.93104734566e-12
-5.55240595634e-146
-6.53942822105e-12
-5.23498434829e-146
-6.16103932499e-12
-4.92827967091e-146
-5.79541158201e-12
-4.63190178054e-146
-4.48746166917e-146
-5.26985128244e-12
-4.20582825125e-146
-4.9340221252e-12
-4.77028556689e-12
-4.60925097014e-12
-3.6701200557e-146
-3.5416325637e-146
-3.415216033e-146
-3.29081745559e-146
-3.84238558808e-12
-3.04786054865e-146
-2.92919465285e-146
-2.81233159271e-146
-3.27098888092e-12
-2.5837956918e-146
-2.47201302601e-146
-2.36181356915e-146
-2.73244683742e-12
-2.60244255846e-12
-2.47415533588e-12
-2.34751697231e-12
-2.22245901393e-12
-1.73073743391e-146
-1.63005241759e-146
-1.53050006592e-146
-1.43202317759e-146
-1.33456438312e-146
-1.50143679091e-12
-1.3855057117e-12
-1.04772057978e-146
-9.53757471989e-147
-8.60523441085e-147
-7.67960312853e-147
-8.19815640213e-13
-7.08976905517e-13
-4.93713121063e-147
-4.89032280788e-13
-3.13165469847e-147
-2.23401020067e-147
-1.33897909431e-147
-4.45974054373e-148
-1.48689788617e-11
-1.45301783837e-11
-1.17063706681e-145
-1.1435632434e-145
-1.11691491178e-145
-1.32270713295e-11
-1.06487796657e-145
-1.0394808162e-145
-1.01449208561e-145
-9.89907350683e-146
-9.65722126763e-146
-9.41931869692e-146
-9.1853197453e-146
-8.9551777829e-146
-8.72884559326e-146
-8.5062753907e-146
-8.28741882696e-146
-9.78941109534e-12
-9.5328263756e-12
-9.28056534289e-12
-7.44814248897e-146
-8.78876853314e-12
-7.04948864894e-146
-6.85522772666e-146
-8.08194808379e-12
-6.47657485921e-146
-6.29207623077e-146
-7.4106428727e-12
-5.93246426371e-146
-5.75724138601e-146
-6.77308285902e-12
-6.56774926265e-12
-6.36589544447e-12
-6.16745256473e-12
-4.92472679339e-146
-5.78052172158e-12
-4.6110060913e-146
-4.45804710505e-146
-4.30761078475e-146
-4.15963797912e-146
-4.01406916612e-146
-3.87084446874e-146
-3.72990366375e-146
-4.35512999424e-12
-3.45463113308e-146
-3.32017729336e-146
-3.18776313493e-146
-3.05732682926e-146
-2.92880624907e-146
-3.39823081393e-12
-3.24678950076e-12
-2.55411341517e-146
-2.43262895684e-146
-2.31274553074e-146
-2.19439945377e-146
-2.51947375773e-12
-1.96206348452e-146
-1.84794512359e-146
-1.73510720011e-146
-1.62348499243e-146
-1.83487309536e-12
-1.70221812173e-12
-1.57080076025e-12
-1.18785284394e-146
-1.31136157237e-12
-9.75636120696e-147
-8.70697973233e-147
-7.66452174398e-147
-8.03835462184e-13
-6.78852858252e-13
-5.54469553848e-13
-4.3060525357e-13
-3.07179589707e-13
-1.84112134223e-13
-6.1322410922e-14
-1.74707989807e-11
-1.70723896235e-11
-1.37542822359e-145
-1.34359594575e-145
-1.3122662588e-145
-1.2814341065e-145
-1.25109436168e-145
-1.48103346396e-11
-1.19187124019e-145
-1.16297726569e-145
-1.37590536837e-11
-1.34200112786e-11
-1.0791006833e-145
-1.05205849522e-145
-1.02546526035e-145
-1.21189702046e-11
-1.1807146863e-11
-1.15005575487e-11
-9.23466420196e-146
-8.99030838683e-146
-1.06114734295e-11
-8.51394635617e-146
-1.00435876589e-11
-9.76687233106e-12
-9.49487443256e-12
-9.22751742817e-12
-7.39220034258e-146
-8.7064167054e-12
-6.96984044919e-146
-6.76404674571e-146
-6.56175643383e-146
-6.36290331642e-146
-6.16742070947e-146
-5.97524146223e-146
-5.78629796411e-146
-6.79190683913e-12
-5.41784550559e-146
-6.35250772965e-12
-5.06151354526e-146
-5.92747099773e-12
-4.71674551146e-146
-4.54852226228e-146
-5.31535810635e-12
-4.22004251773e-146
-4.05964298673e-146
-4.73170799276e-12
-3.74616435722e-146
-3.59294013897e-146
-3.44196202516e-146
-3.29315665527e-146
-3.81578666687e-12
-3.00176919837e-146
-2.85903892348e-146
-2.71818503032e-146
-3.12778504241e-12
-2.44180708783e-146
-2.79671046877e-12
-2.17203432189e-146
-2.4732800369e-12
-2.31420172027e-12
-1.77843620049e-146
-1.64988224468e-146
-1.52252371327e-146
-1.39628398285e-146
-1.54148119774e-12
-1.1468536856e-146
-1.02350915437e-146
-9.00975517824e-147
-9.44927502616e-13
-6.58031726643e-147
-6.51800653467e-13
-4.17402989005e-147
-2.97762883789e-147
-1.78468762369e-147
-7.20880641766e-14
-1.9862929492e-11
-1.60048805775e-145
-1.56369001773e-145
-1.52747261974e-145
-1.80918315874e-11
-1.76664820742e-11
-1.72479579388e-11
-1.38829096118e-145
-1.64310894122e-11
-1.32202787173e-145
-1.56406244934e-11
-1.25791676165e-145
-1.22665221257e-145
-1.19590633746e-145
-1.41364307964e-11
-1.37759070024e-11
-1.10671458713e-145
-1.30729217053e-11
-1.27302949682e-11
-1.02194995252e-145
-9.94646791164e-146
-1.1736870916e-11
-1.14169307303e-11
-9.15494026599e-146
-8.90004842716e-146
-1.04894996216e-11
-1.01908586476e-11
-9.89732045266e-12
-7.92329310062e-146
-7.68943696427e-146
-9.04641776475e-12
-7.23359799186e-146
-7.01146281226e-146
-8.23815619637e-12
-7.9777775825e-12
-7.72176298693e-12
-7.47001739172e-12
-5.95553876764e-146
-6.97895038767e-12
-5.55725554421e-146
-5.36295745751e-146
-6.27196087801e-12
-6.04380388443e-12
-5.81923601507e-12
-5.59815819095e-12
-4.43666956482e-146
-5.16607411916e-12
-4.0857223053e-146
-3.91411140282e-146
-4.54162117586e-12
-3.57819783078e-146
-4.13992076956e-12
-3.25146862406e-146
-3.0913370746e-146
-3.55723002179e-12
-3.36788414732e-12
-2.62285486587e-146
-2.47038017996e-146
-2.31960554993e-146
-2.17044486198e-146
-2.45311934981e-12
-2.27582835186e-12
-1.7317822908e-146
-1.58821229193e-146
-1.44582281357e-146
-1.30452668084e-146
-1.16423658252e-146
-1.02486508076e-146
-1.07487018562e-12
-9.077599072e-13
-6.11386146619e-147
-5.75818208971e-13
-4.10773692716e-13
-2.03017213541e-147
-6.76195220655e-148
-1.70288351915e-145
-1.66397827924e-145
-1.62568687553e-145
-1.58800305821e-145
-1.88084383981e-11
-1.83659422795e-11
-1.47853355007e-145
-1.44321614767e-145
-1.40847401274e-145
-1.37430047265e-145
-1.34068878625e-145
-1.30763214573e-145
-1.54637746174e-11
-1.5076099192e-11
-1.46949025059e-11
-1.18081759274e-145
-1.39516017681e-11
-1.35893240223e-11
-1.0911914186e-145
-1.06232230336e-145
-1.03394408789e-145
-1.22006363141e-11
-9.78630572622e-146
-9.5168023917e-146
-1.12200418854e-11
-8.99154417499e-146
-8.73563563295e-146
-1.02889058175e-11
-8.23687156395e-146
-7.99385923136e-146
-7.75498799407e-146
-9.11992639187e-12
-7.28934973139e-146
-7.06242197065e-146
-6.83931385502e-146
-8.02818752276e-12
-7.7665854649e-12
-6.19209002112e-146
-5.98344094714e-146
-5.77819960352e-146
-5.57628235592e-146
-5.37760517838e-146
-5.18208366694e-146
-4.98963303692e-146
-4.80016815046e-146
-4.61360350636e-146
-5.37220457038e-12
-5.15267422438e-12
-4.93634759538e-12
-3.89462570053e-146
-3.7212682324e-146
-4.30553554379e-12
-3.38160697897e-146
-3.89907340992e-12
-3.05076482261e-146
-3.50287861064e-12
-2.72803521307e-146
-3.11609193068e-12
-2.92595691916e-12
-2.73784976414e-12
-2.10406875663e-146
-1.95203346218e-146
-1.8014011991e-146
-1.65208192367e-146
-1.50398544148e-146
-1.3570214187e-146
-1.21109939106e-146
-1.06612877493e-146
-9.22018880533e-147
-7.78678919888e-147
-6.36018020575e-147
-4.93945233618e-147
-3.52369547078e-147
-2.11199895328e-147
-7.03451704176e-148
-2.14860779872e-11
-2.09947268439e-11
-2.05111730593e-11
-1.65208886996e-145
-1.61348125751e-145
-1.91064743568e-11
-1.86532843755e-11
-1.50136579597e-145
-1.77689599238e-11
-1.42964136917e-145
-1.39466349814e-145
-1.36026551827e-145
-1.60861029247e-11
-1.56827467134e-11
-1.2604773052e-145
-1.48962337722e-11
-1.19671524664e-145
-1.16564052237e-145
-1.37655853954e-11
-1.34014292265e-11
-1.07554912207e-145
-1.26916400983e-11
-1.23458158844e-11
-9.89992448483e-146
-1.16718251539e-11
-1.13434635266e-11
-9.08755449949e-146
-1.07035153335e-11
-8.56889168437e-146
-1.00852703216e-11
-8.06779432544e-146
-7.82362452617e-146
-9.19683412721e-12
-7.34762234127e-146
-8.62930814663e-12
-6.88750442512e-146
-6.66318836305e-146
-6.44258610068e-146
-7.54996927358e-12
-6.01217617187e-146