/*--------------------------------*- C++ -*----------------------------------*\
| =========                 |                                                 |
| \\      /  F ield         | OpenFOAM: The Open Source CFD Toolbox           |
|  \\    /   O peration     | Version:  v1706                                 |
|   \\  /    A nd           | Web:      www.OpenFOAM.com                      |
|    \\/     M anipulation  |                                                 |
\*---------------------------------------------------------------------------*/
FoamFile
{
    version     2.0;
    format      ascii;
    class       volScalarField;
    location    "0.014";
    object      kappave;
}
// * * * * * * * * * * * * * * * * * * * * * * * * * * * * * * * * * * * * * //

dimensions      [1 1 -3 -1 0 0 0];


internalField   nonuniform List<scalar> 
15860
(
0.000188018344765
0.000188018344704
0.000188018344662
0.000188018344646
0.000188018344104
0.000188018341907
0.000188018337911
0.000188018333725
0.000188018329106
0.000188018339357
0.000188018185691
0.000188017020525
0.00018801560226
0.0001880329071
0.000188131477327
0.000188411503446
0.000194411423399
0.000321998587291
0.000641736392591
0.00098243928897
0.00396165189426
0.0252034904099
0.109229967414
0.127397873159
0.130106195263
0.130520505838
0.129296202643
0.124246249461
0.117794187452
0.111440075758
0.103145609404
0.0991878908459
0.0974528974921
0.0949329338915
0.0935510885183
0.092367417707
0.0911120408129
0.0902121331403
0.0895242460964
0.0887004232287
0.0880281033858
0.0872311615356
0.085620337478
0.0828075028886
0.0816636222279
0.0805663053095
0.0793032735342
0.0784244444363
0.0776648107296
0.0770289552726
0.0764915188178
0.0760895583581
0.0757531729671
0.0754896232435
0.0751930859898
0.0748675713838
0.0746122756419
0.074433451972
0.074411244232
0.0744508397802
0.0740059710297
0.0722567519436
0.07216874011
0.0719637258925
0.0715795975908
0.0711912729856
0.0708769062181
0.070691476506
0.0704656948709
0.0703377618317
0.0701659090855
0.0700642592105
0.0698738960159
0.0698277671015
0.0703255342451
0.00018801834487
0.00018801834487
0.000188018344869
0.000188018344868
0.000188018344867
0.000188018344861
0.000188018344848
0.000188018344839
0.000188018344835
0.000188018344872
0.000188018344403
0.000188018342184
0.000188018340022
0.000188018383096
0.000188018574605
0.000188019293601
0.000188048352439
0.00018839806618
0.000189253037876
0.000190578247442
0.000207235877142
0.000516443007566
0.00250918545783
0.00377134885784
0.00449895005433
0.00501206421293
0.00550326538883
0.00589455901303
0.006906309031
0.0511864125176
0.128754929391
0.142791889125
0.140447285115
0.137336523691
0.133753103414
0.13033904242
0.127224275509
0.124433504259
0.121911985146
0.118912255912
0.116229226753
0.113122514703
0.108918088523
0.10291076361
0.100047172027
0.0974452582511
0.0954970148665
0.0939504309186
0.0926054726154
0.0915489759137
0.0905893325556
0.0898450582422
0.0891860078361
0.0884447357778
0.0876793612211
0.0869718350798
0.0863824609007
0.0858096088707
0.0854426919683
0.0852728062852
0.0848330867025
0.0820608830335
0.0814346129353
0.0808173527608
0.0800436001334
0.0793595397696
0.078803142872
0.078452226818
0.0780654566818
0.0778263391123
0.0775395073249
0.0773626471129
0.0770885997842
0.0769555297419
0.0774529288697
0.000188018344871
0.000188018344871
0.00018801834487
0.00018801834487
0.000188018344869
0.000188018344868
0.00018801834486
0.000188018344859
0.00018801834486
0.000188018344862
0.000188018344867
0.00018801834487
0.00018801834488
0.000188018345064
0.000188018345751
0.000188018348782
0.000188018461013
0.000188019258199
0.0001880208644
0.000188023694802
0.000188075238549
0.000189551607919
0.000198326744391
0.000206982287984
0.000213513582188
0.000218570105052
0.000223437145155
0.000227247119106
0.000244496785257
0.00094641381532
0.0036393453776
0.00515802440483
0.00547951822109
0.00566361074705
0.00580400860808
0.00591058810735
0.00599012355426
0.00605338483353
0.00609969578021
0.00614313552454
0.00615540562
0.00721324910495
0.0591263699752
0.124810312324
0.139277697291
0.143686884185
0.140843525574
0.137145138284
0.133263868964
0.129707930915
0.126597348441
0.123995440179
0.121710099458
0.119511135354
0.117579239375
0.115852237247
0.114393704651
0.112895607821
0.111554197353
0.110184813731
0.108710164254
0.10321700276
0.100976943362
0.099068919584
0.0974896646416
0.0963820219833
0.095434660222
0.0947682069352
0.0940901611919
0.0936222094582
0.0931146053488
0.0927747366838
0.0923411504805
0.0920702288646
0.0925183746331
0.00018801834487
0.00018801834487
0.00018801834487
0.000188018344871
0.000188018344869
0.00018801834487
0.000188018344863
0.000188018344859
0.000188018344861
0.000188018344862
0.000188018344866
0.000188018344869
0.00018801834487
0.000188018344872
0.000188018344876
0.000188018344892
0.00018801834528
0.000188018347088
0.000188018350136
0.000188018356447
0.000188018546414
0.000188023015662
0.000188040849636
0.00018805893175
0.000188073020459
0.000188084358164
0.000188095351031
0.000188103686267
0.000188187152526
0.000191453123522
0.000205725720743
0.000217140949648
0.000220978949336
0.000223683598326
0.00022611213356
0.000228160979379
0.000229851693548
0.000231268507744
0.00023240359981
0.000233303577366
0.000233801991896
0.000255346007041
0.00109273709346
0.00329227023581
0.0044344879931
0.00533613723409
0.00568195656241
0.00589529862656
0.00604434459717
0.0061463428953
0.006222838192
0.00627987337092
0.00631953148184
0.00635280158019
0.00637459507493
0.00645676083783
0.0148221783294
0.0360030133067
0.0506150625519
0.0627654001477
0.080649631039
0.127968404063
0.139730134049
0.145463606671
0.14619708575
0.144948244538
0.143502891054
0.142122615205
0.140706916675
0.139486776228
0.138236398971
0.137219076966
0.136076455564
0.135295802283
0.135990938182
0.00018801834487
0.00018801834487
0.00018801834487
0.000188018344873
0.000188018344869
0.000188018344871
0.000188018344866
0.00018801834486
0.00018801834486
0.000188018344861
0.000188018344865
0.000188018344869
0.000188018344871
0.000188018344872
0.000188018344873
0.000188018344873
0.000188018344873
0.000188018344872
0.000188018344876
0.000188018344895
0.000188018345691
0.000188018358109
0.000188018393894
0.000188018430275
0.000188018459006
0.000188018482634
0.00018801850459
0.000188018522937
0.000188018881796
0.000188027849069
0.000188057738736
0.000188082425365
0.000188091403615
0.00018809793924
0.000188103905729
0.000188109071061
0.00018811346634
0.000188117260544
0.000188120424843
0.000188123023891
0.000188124439129
0.000188242644217
0.000191875942087
0.000203655858752
0.000211773052621
0.000219642255234
0.000224022499159
0.000227352170883
0.000230057999712
0.000232167925818
0.000233859376605
0.00023518290976
0.000236188903662
0.000236873755203
0.000237444927409
0.000239237258385
0.000328426766776
0.000599057789959
0.000842592808662
0.00108305253277
0.00155535780247
0.00345493934606
0.00432889095247
0.005068891863
0.0055142704085
0.00570128080418
0.00583805886288
0.00592954479837
0.00601337936605
0.00606950184118
0.00612420086963
0.00616025907953
0.00619958062305
0.006225201367
0.00620734820355
0.000188018344869
0.00018801834487
0.000188018344869
0.000188018344873
0.000188018344871
0.000188018344873
0.00018801834487
0.000188018344862
0.000188018344862
0.000188018344864
0.000188018344866
0.000188018344869
0.000188018344872
0.000188018344872
0.000188018344872
0.000188018344875
0.000188018344873
0.000188018344867
0.000188018344864
0.000188018344864
0.000188018344866
0.0001880183449
0.000188018344978
0.00018801834505
0.000188018345108
0.000188018345153
0.000188018345193
0.000188018345246
0.000188018346707
0.000188018369865
0.000188018429709
0.000188018476902
0.000188018496038
0.000188018510506
0.00018801852391
0.000188018535869
0.000188018546422
0.000188018555843
0.000188018564019
0.000188018570622
0.00018801857473
0.000188019046986
0.000188028230666
0.000188054081492
0.000188072915253
0.000188091284587
0.000188101976069
0.000188110313135
0.000188117240705
0.000188122796229
0.000188127369357
0.00018813106296
0.000188133981135
0.000188136121315
0.000188138221532
0.000188149282002
0.000188410383056
0.00018932932282
0.000190319776266
0.00019142327402
0.000193862938871
0.000204799780336
0.000210977826139
0.000216946906543
0.000221264918241
0.000223599390118
0.000225474141546
0.000226873067959
0.000228197374946
0.000229184479341
0.000230152473478
0.000230866976375
0.000231631536207
0.000232146159408
0.000231796059312
0.000188018344869
0.000188018344873
0.000188018344872
0.000188018344874
0.000188018344872
0.000188018344873
0.000188018344873
0.000188018344862
0.000188018344862
0.000188018344865
0.000188018344869
0.00018801834487
0.000188018344871
0.000188018344872
0.000188018344872
0.000188018344877
0.000188018344876
0.00018801834487
0.000188018344867
0.000188018344866
0.000188018344863
0.000188018344862
0.000188018344867
0.00018801834487
0.000188018344873
0.000188018344871
0.000188018344872
0.000188018344875
0.000188018344883
0.00018801834494
0.000188018345052
0.000188018345133
0.000188018345164
0.000188018345188
0.000188018345216
0.000188018345246
0.000188018345276
0.000188018345301
0.000188018345323
0.000188018345342
0.000188018345352
0.00018801834707
0.000188018369004
0.000188018421096
0.000188018460177
0.000188018497508
0.00018801852038
0.000188018538657
0.000188018554192
0.000188018567066
0.000188018577995
0.000188018587173
0.000188018594768
0.000188018600941
0.000188018608889
0.000188018652567
0.000188019270785
0.000188021334193
0.000188023570979
0.000188026169082
0.000188032108353
0.000188057213502
0.000188071950582
0.000188086288844
0.000188096862368
0.000188102800547
0.000188107568536
0.000188111184016
0.000188114617334
0.000188117217751
0.000188119765039
0.000188121672476
0.000188123696449
0.000188125081032
0.000188124251012
0.00018801834487
0.000188018344873
0.000188018344874
0.000188018344875
0.000188018344872
0.000188018344873
0.000188018344875
0.000188018344866
0.000188018344862
0.000188018344866
0.000188018344869
0.00018801834487
0.000188018344871
0.000188018344872
0.000188018344871
0.000188018344877
0.000188018344878
0.000188018344872
0.000188018344869
0.000188018344866
0.000188018344866
0.000188018344863
0.000188018344868
0.000188018344871
0.000188018344874
0.000188018344873
0.000188018344872
0.000188018344875
0.000188018344877
0.000188018344877
0.000188018344879
0.000188018344876
0.00018801834487
0.000188018344864
0.000188018344863
0.000188018344867
0.000188018344874
0.000188018344879
0.000188018344881
0.000188018344885
0.00018801834488
0.000188018344882
0.000188018344933
0.000188018345036
0.000188018345115
0.000188018345187
0.000188018345234
0.000188018345276
0.000188018345311
0.000188018345339
0.000188018345358
0.000188018345385
0.000188018345405
0.000188018345414
0.00018801834544
0.000188018345608
0.000188018347055
0.000188018351422
0.000188018356254
0.000188018362195
0.000188018376454
0.000188018429723
0.000188018461941
0.000188018493087
0.000188018516221
0.000188018529588
0.000188018540418
0.000188018548793
0.000188018556731
0.00018801856287
0.000188018568854
0.000188018573411
0.000188018578179
0.000188018581514
0.000188018579919
0.000188018344868
0.000188018344872
0.000188018344877
0.000188018344878
0.000188018344875
0.000188018344876
0.000188018344877
0.00018801834487
0.000188018344865
0.000188018344865
0.000188018344871
0.000188018344873
0.000188018344871
0.000188018344874
0.000188018344874
0.000188018344876
0.000188018344879
0.000188018344873
0.00018801834487
0.000188018344866
0.000188018344866
0.000188018344864
0.000188018344869
0.00018801834487
0.000188018344874
0.000188018344875
0.000188018344872
0.000188018344877
0.000188018344878
0.000188018344879
0.000188018344879
0.000188018344877
0.000188018344872
0.000188018344864
0.000188018344862
0.000188018344868
0.000188018344872
0.000188018344879
0.000188018344882
0.000188018344885
0.000188018344879
0.000188018344876
0.000188018344874
0.000188018344876
0.000188018344878
0.000188018344876
0.000188018344875
0.000188018344879
0.00018801834488
0.00018801834488
0.000188018344875
0.000188018344879
0.000188018344881
0.000188018344873
0.000188018344872
0.000188018344879
0.000188018344885
0.000188018344892
0.000188018344903
0.000188018344921
0.000188018344952
0.000188018345063
0.000188018345133
0.000188018345194
0.000188018345245
0.000188018345275
0.000188018345305
0.000188018345322
0.00018801834534
0.000188018345351
0.000188018345372
0.000188018345375
0.000188018345386
0.000188018345398
0.000188018345393
0.000188018344867
0.000188018344871
0.000188018344876
0.000188018344879
0.000188018344875
0.000188018344877
0.000188018344878
0.000188018344872
0.000188018344867
0.000188018344864
0.000188018344869
0.000188018344873
0.000188018344873
0.000188018344874
0.000188018344875
0.000188018344878
0.00018801834488
0.000188018344877
0.000188018344872
0.000188018344866
0.000188018344867
0.000188018344866
0.000188018344869
0.000188018344872
0.000188018344874
0.000188018344875
0.000188018344874
0.000188018344877
0.00018801834488
0.000188018344879
0.000188018344879
0.000188018344878
0.000188018344874
0.000188018344868
0.000188018344862
0.000188018344867
0.000188018344871
0.000188018344878
0.000188018344883
0.000188018344885
0.00018801834488
0.000188018344877
0.000188018344874
0.000188018344877
0.000188018344877
0.000188018344878
0.000188018344877
0.00018801834488
0.00018801834488
0.000188018344881
0.000188018344876
0.000188018344878
0.00018801834488
0.000188018344871
0.000188018344872
0.000188018344877
0.00018801834488
0.000188018344878
0.00018801834488
0.000188018344884
0.000188018344881
0.000188018344881
0.000188018344881
0.000188018344876
0.000188018344877
0.000188018344879
0.000188018344885
0.000188018344884
0.000188018344884
0.00018801834488
0.000188018344889
0.00018801834488
0.00018801834488
0.000188018344884
0.000188018344882
0.000188018344872
0.00018801834487
0.000188018344875
0.00018801834488
0.000188018344878
0.000188018344877
0.000188018344879
0.000188018344874
0.000188018344871
0.000188018344867
0.000188018344868
0.000188018344873
0.000188018344872
0.000188018344874
0.000188018344874
0.000188018344879
0.00018801834488
0.00018801834488
0.000188018344877
0.000188018344866
0.000188018344867
0.000188018344867
0.000188018344868
0.000188018344873
0.000188018344873
0.000188018344875
0.000188018344875
0.000188018344877
0.00018801834488
0.000188018344879
0.000188018344878
0.00018801834488
0.000188018344877
0.000188018344869
0.000188018344865
0.000188018344866
0.000188018344873
0.000188018344877
0.000188018344884
0.000188018344886
0.000188018344882
0.000188018344877
0.000188018344874
0.000188018344878
0.000188018344879
0.000188018344879
0.000188018344879
0.000188018344881
0.00018801834488
0.000188018344881
0.000188018344876
0.000188018344878
0.00018801834488
0.000188018344874
0.000188018344872
0.000188018344877
0.00018801834488
0.00018801834488
0.00018801834488
0.000188018344883
0.000188018344882
0.000188018344881
0.000188018344881
0.000188018344877
0.000188018344877
0.000188018344879
0.000188018344885
0.000188018344883
0.000188018344885
0.000188018344879
0.000188018344888
0.000188018344879
0.000188018344879
0.000188018344883
0.000188018344882
0.000188018344875
0.000188018344874
0.000188018344875
0.00018801834488
0.000188018344881
0.000188018344879
0.00018801834488
0.000188018344875
0.000188018344872
0.000188018344869
0.00018801834487
0.000188018344873
0.000188018344872
0.000188018344874
0.000188018344874
0.000188018344878
0.00018801834488
0.000188018344882
0.00018801834488
0.00018801834487
0.000188018344867
0.000188018344867
0.00018801834487
0.000188018344872
0.000188018344874
0.000188018344875
0.000188018344875
0.000188018344879
0.00018801834488
0.000188018344879
0.00018801834488
0.00018801834488
0.00018801834488
0.00018801834487
0.000188018344866
0.000188018344865
0.000188018344874
0.000188018344876
0.000188018344884
0.000188018344886
0.000188018344883
0.000188018344878
0.000188018344877
0.000188018344878
0.00018801834488
0.00018801834488
0.000188018344881
0.00018801834488
0.000188018344882
0.000188018344883
0.000188018344876
0.00018801834488
0.00018801834488
0.000188018344876
0.000188018344874
0.000188018344878
0.000188018344882
0.00018801834488
0.000188018344881
0.000188018344883
0.000188018344882
0.000188018344882
0.000188018344882
0.000188018344878
0.000188018344878
0.000188018344879
0.000188018344885
0.000188018344883
0.000188018344887
0.00018801834488
0.00018801834489
0.00018801834488
0.000188018344879
0.000188018344884
0.000188018344882
0.000188018344877
0.000188018344876
0.000188018344876
0.000188018344879
0.000188018344881
0.000188018344879
0.000188018344881
0.000188018344876
0.000188018344874
0.000188018344868
0.000188018344872
0.000188018344872
0.000188018344874
0.000188018344877
0.000188018344877
0.000188018344878
0.000188018344879
0.000188018344882
0.000188018344883
0.000188018344873
0.000188018344869
0.000188018344869
0.000188018344869
0.000188018344871
0.000188018344876
0.000188018344876
0.000188018344878
0.000188018344878
0.000188018344882
0.000188018344881
0.00018801834488
0.000188018344881
0.000188018344881
0.000188018344871
0.000188018344868
0.000188018344865
0.000188018344873
0.000188018344878
0.000188018344883
0.000188018344888
0.000188018344887
0.000188018344881
0.000188018344879
0.000188018344878
0.000188018344881
0.000188018344881
0.000188018344882
0.00018801834488
0.000188018344885
0.000188018344883
0.000188018344875
0.00018801834488
0.000188018344882
0.000188018344877
0.000188018344875
0.000188018344878
0.000188018344884
0.00018801834488
0.000188018344881
0.000188018344885
0.000188018344882
0.000188018344881
0.000188018344882
0.000188018344878
0.000188018344877
0.00018801834488
0.000188018344886
0.000188018344883
0.000188018344887
0.000188018344882
0.00018801834489
0.000188018344881
0.000188018344883
0.000188018344885
0.000188018344883
0.000188018344879
0.000188018344876
0.000188018344875
0.000188018344878
0.000188018344881
0.000188018344882
0.000188018344882
0.00018801834488
0.000188018344877
0.000188018344871
0.000188018344874
0.000188018344875
0.000188018344874
0.000188018344877
0.000188018344878
0.00018801834488
0.000188018344881
0.000188018344882
0.000188018344885
0.000188018344874
0.000188018344869
0.000188018344868
0.000188018344869
0.00018801834487
0.000188018344876
0.000188018344878
0.00018801834488
0.000188018344878
0.000188018344884
0.000188018344881
0.000188018344882
0.000188018344881
0.000188018344883
0.000188018344873
0.000188018344869
0.000188018344867
0.000188018344875
0.000188018344879
0.000188018344885
0.000188018344888
0.00018801834489
0.000188018344881
0.000188018344881
0.000188018344878
0.000188018344884
0.000188018344881
0.000188018344882
0.00018801834488
0.000188018344886
0.000188018344884
0.000188018344878
0.000188018344881
0.000188018344882
0.000188018344877
0.000188018344875
0.00018801834488
0.000188018344884
0.000188018344881
0.00018801834488
0.000188018344887
0.000188018344882
0.000188018344882
0.000188018344883
0.00018801834488
0.000188018344877
0.000188018344881
0.000188018344886
0.000188018344883
0.000188018344887
0.000188018344883
0.00018801834489
0.00018801834488
0.000188018344885
0.000188018344885
0.000188018344885
0.00018801834488
0.000188018344881
0.000188018344879
0.000188018344877
0.000188018344881
0.000188018344882
0.000188018344882
0.000188018344883
0.000188018344881
0.00018801834487
0.000188018344872
0.000188018344876
0.000188018344876
0.000188018344876
0.000188018344877
0.00018801834488
0.000188018344881
0.000188018344881
0.000188018344887
0.000188018344881
0.000188018344874
0.000188018344871
0.000188018344869
0.000188018344869
0.000188018344874
0.00018801834488
0.000188018344881
0.000188018344879
0.000188018344885
0.000188018344881
0.000188018344882
0.000188018344881
0.000188018344884
0.000188018344876
0.00018801834487
0.000188018344868
0.000188018344876
0.000188018344881
0.000188018344887
0.000188018344892
0.000188018344891
0.000188018344883
0.000188018344881
0.00018801834488
0.000188018344886
0.00018801834488
0.000188018344881
0.000188018344883
0.000188018344887
0.000188018344885
0.00018801834488
0.000188018344882
0.000188018344884
0.000188018344878
0.000188018344876
0.000188018344882
0.000188018344888
0.000188018344883
0.00018801834488
0.000188018344887
0.000188018344882
0.000188018344881
0.000188018344884
0.000188018344882
0.00018801834488
0.000188018344883
0.000188018344886
0.000188018344882
0.000188018344887
0.000188018344884
0.000188018344889
0.000188018344881
0.000188018344885
0.000188018344887
0.000188018344886
0.000188018344879
0.000188018344882
0.000188018344881
0.00018801834488
0.00018801834488
0.000188018344881
0.000188018344882
0.000188018344883
0.000188018344885
0.000188018344876
0.000188018344871
0.000188018344875
0.000188018344876
0.000188018344876
0.000188018344877
0.000188018344879
0.000188018344881
0.000188018344882
0.000188018344887
0.000188018344886
0.000188018344878
0.000188018344873
0.000188018344873
0.000188018344873
0.000188018344873
0.00018801834488
0.000188018344882
0.000188018344878
0.000188018344886
0.00018801834488
0.000188018344882
0.000188018344884
0.000188018344885
0.000188018344878
0.000188018344871
0.000188018344869
0.000188018344876
0.000188018344882
0.000188018344888
0.000188018344893
0.000188018344892
0.000188018344884
0.000188018344882
0.000188018344882
0.000188018344886
0.000188018344882
0.00018801834488
0.000188018344884
0.000188018344887
0.000188018344885
0.000188018344881
0.000188018344882
0.000188018344887
0.000188018344879
0.000188018344876
0.000188018344884
0.00018801834489
0.000188018344883
0.000188018344882
0.000188018344886
0.000188018344884
0.000188018344883
0.000188018344885
0.000188018344883
0.000188018344883
0.000188018344885
0.000188018344888
0.000188018344883
0.000188018344885
0.000188018344886
0.000188018344888
0.000188018344881
0.000188018344886
0.000188018344891
0.000188018344886
0.000188018344877
0.000188018344883
0.000188018344886
0.00018801834488
0.00018801834488
0.000188018344881
0.000188018344886
0.000188018344886
0.000188018344887
0.000188018344881
0.000188018344874
0.000188018344874
0.000188018344876
0.000188018344877
0.000188018344876
0.000188018344878
0.000188018344881
0.00018801834488
0.000188018344887
0.000188018344888
0.00018801834488
0.000188018344875
0.000188018344875
0.000188018344875
0.000188018344874
0.000188018344882
0.000188018344883
0.00018801834488
0.000188018344888
0.000188018344884
0.000188018344882
0.000188018344887
0.000188018344886
0.00018801834488
0.000188018344875
0.000188018344869
0.000188018344877
0.000188018344883
0.000188018344889
0.000188018344893
0.000188018344893
0.000188018344885
0.000188018344882
0.000188018344884
0.000188018344886
0.000188018344882
0.00018801834488
0.000188018344886
0.000188018344887
0.000188018344887
0.000188018344881
0.000188018344884
0.00018801834489
0.000188018344882
0.000188018344878
0.000188018344885
0.000188018344891
0.000188018344883
0.000188018344881
0.000188018344886
0.000188018344883
0.000188018344886
0.000188018344887
0.000188018344886
0.000188018344885
0.000188018344887
0.000188018344889
0.000188018344883
0.000188018344885
0.000188018344886
0.000188018344888
0.000188018344881
0.000188018344884
0.000188018344891
0.000188018344886
0.000188018344881
0.000188018344885
0.000188018344887
0.000188018344882
0.000188018344879
0.000188018344883
0.000188018344886
0.000188018344885
0.000188018344888
0.000188018344886
0.000188018344874
0.000188018344873
0.000188018344876
0.000188018344876
0.000188018344876
0.000188018344877
0.000188018344881
0.000188018344883
0.000188018344891
0.000188018344893
0.000188018344885
0.000188018344879
0.000188018344875
0.000188018344876
0.000188018344876
0.000188018344881
0.000188018344884
0.000188018344882
0.000188018344889
0.000188018344885
0.000188018344885
0.000188018344889
0.00018801834489
0.000188018344884
0.000188018344877
0.000188018344873
0.000188018344875
0.000188018344881
0.000188018344888
0.000188018344893
0.000188018344895
0.000188018344886
0.000188018344881
0.000188018344885
0.000188018344887
0.000188018344883
0.000188018344881
0.000188018344886
0.000188018344887
0.00018801834489
0.000188018344886
0.000188018344883
0.00018801834489
0.000188018344883
0.000188018344878
0.000188018344886
0.000188018344892
0.000188018344884
0.00018801834488
0.000188018344886
0.000188018344886
0.000188018344888
0.000188018344889
0.000188018344888
0.000188018344889
0.00018801834489
0.000188018344889
0.000188018344887
0.000188018344885
0.000188018344888
0.000188018344892
0.000188018344883
0.000188018344885
0.000188018344893
0.000188018344889
0.000188018344883
0.000188018344887
0.000188018344889
0.000188018344886
0.000188018344878
0.00018801834488
0.000188018344886
0.000188018344889
0.000188018344888
0.000188018344892
0.000188018344883
0.000188018344879
0.000188018344875
0.000188018344877
0.000188018344876
0.000188018344882
0.000188018344884
0.000188018344884
0.000188018344889
0.000188018344894
0.000188018344892
0.000188018344882
0.000188018344882
0.00018801834488
0.000188018344878
0.000188018344884
0.000188018344886
0.000188018344885
0.00018801834489
0.000188018344887
0.000188018344886
0.000188018344887
0.00018801834489
0.000188018344885
0.00018801834488
0.000188018344877
0.000188018344874
0.000188018344883
0.000188018344888
0.000188018344896
0.000188018344896
0.000188018344889
0.000188018344886
0.000188018344884
0.000188018344888
0.000188018344888
0.000188018344881
0.000188018344886
0.000188018344885
0.000188018344891
0.000188018344889
0.000188018344882
0.000188018344891
0.000188018344884
0.000188018344882
0.000188018344885
0.000188018344896
0.000188018344884
0.000188018344883
0.000188018344889
0.000188018344887
0.000188018344887
0.00018801834489
0.000188018344889
0.000188018344891
0.00018801834489
0.00018801834489
0.00018801834489
0.000188018344886
0.000188018344887
0.000188018344895
0.000188018344882
0.000188018344884
0.000188018344891
0.000188018344892
0.000188018344884
0.000188018344884
0.000188018344889
0.000188018344891
0.000188018344887
0.000188018344884
0.000188018344889
0.000188018344889
0.000188018344892
0.000188018344894
0.000188018344889
0.000188018344883
0.000188018344875
0.000188018344877
0.000188018344882
0.000188018344883
0.000188018344885
0.000188018344889
0.000188018344891
0.000188018344894
0.000188018344896
0.000188018344888
0.000188018344886
0.000188018344882
0.000188018344876
0.000188018344886
0.000188018344891
0.000188018344888
0.000188018344891
0.000188018344888
0.00018801834489
0.000188018344887
0.00018801834489
0.000188018344891
0.000188018344884
0.000188018344883
0.000188018344879
0.000188018344881
0.000188018344888
0.000188018344896
0.000188018344897
0.000188018344893
0.00018801834489
0.000188018344888
0.000188018344892
0.000188018344889
0.000188018344885
0.000188018344886
0.000188018344885
0.000188018344895
0.000188018344891
0.000188018344886
0.000188018344893
0.000188018344884
0.000188018344885
0.000188018344888
0.000188018344897
0.000188018344885
0.000188018344882
0.000188018344889
0.000188018344891
0.000188018344892
0.00018801834489
0.000188018344889
0.000188018344889
0.00018801834489
0.00018801834489
0.000188018344892
0.000188018344892
0.00018801834489
0.000188018344895
0.000188018344886
0.000188018344886
0.00018801834489
0.000188018344893
0.000188018344884
0.000188018344883
0.000188018344887
0.000188018344892
0.000188018344893
0.000188018344889
0.000188018344888
0.000188018344894
0.00018801834489
0.000188018344895
0.000188018344892
0.000188018344889
0.000188018344884
0.000188018344883
0.000188018344885
0.000188018344883
0.000188018344888
0.000188018344892
0.000188018344889
0.000188018344893
0.000188018344898
0.000188018344894
0.000188018344888
0.000188018344886
0.00018801834488
0.000188018344883
0.000188018344891
0.000188018344892
0.000188018344892
0.000188018344887
0.00018801834489
0.00018801834489
0.000188018344889
0.000188018344893
0.000188018344884
0.000188018344887
0.000188018344882
0.00018801834488
0.000188018344885
0.000188018344895
0.000188018344898
0.000188018344894
0.000188018344891
0.000188018344887
0.000188018344892
0.00018801834489
0.000188018344889
0.00018801834489
0.000188018344888
0.000188018344895
0.000188018344891
0.000188018344889
0.000188018344895
0.000188018344888
0.000188018344884
0.00018801834489
0.000188018344898
0.000188018344891
0.000188018344886
0.000188018344893
0.00018801834489
0.000188018344892
0.00018801834489
0.00018801834489
0.000188018344888
0.000188018344888
0.000188018344889
0.000188018344892
0.000188018344894
0.00018801834489
0.000188018344895
0.000188018344886
0.000188018344886
0.000188018344889
0.000188018344894
0.000188018344892
0.00018801834489
0.000188018344891
0.000188018344891
0.000188018344895
0.000188018344895
0.000188018344893
0.000188018344895
0.000188018344895
0.000188018344896
0.000188018344893
0.000188018344891
0.00018801834489
0.000188018344888
0.000188018344886
0.000188018344889
0.000188018344885
0.000188018344892
0.000188018344893
0.000188018344895
0.000188018344898
0.0001880183449
0.000188018344895
0.00018801834489
0.000188018344885
0.000188018344886
0.000188018344891
0.000188018344895
0.000188018344893
0.000188018344891
0.00018801834489
0.00018801834489
0.000188018344893
0.000188018344896
0.00018801834489
0.000188018344888
0.000188018344884
0.00018801834488
0.000188018344888
0.000188018344894
0.000188018344898
0.000188018344895
0.000188018344892
0.00018801834489
0.000188018344892
0.00018801834489
0.000188018344893
0.000188018344891
0.000188018344891
0.000188018344895
0.000188018344892
0.000188018344892
0.000188018344899
0.000188018344889
0.000188018344884
0.000188018344893
0.000188018344899
0.000188018344894
0.000188018344888
0.000188018344893
0.00018801834489
0.000188018344892
0.00018801834489
0.000188018344892
0.000188018344888
0.000188018344886
0.000188018344889
0.000188018344892
0.000188018344894
0.000188018344891
0.000188018344895
0.000188018344889
0.000188018344892
0.000188018344889
0.000188018344894
0.000188018344893
0.000188018344894
0.000188018344895