/*--------------------------------*- C++ -*----------------------------------*\
| =========                 |                                                 |
| \\      /  F ield         | OpenFOAM: The Open Source CFD Toolbox           |
|  \\    /   O peration     | Version:  v1706                                 |
|   \\  /    A nd           | Web:      www.OpenFOAM.com                      |
|    \\/     M anipulation  |                                                 |
\*---------------------------------------------------------------------------*/
FoamFile
{
    version     2.0;
    format      ascii;
    class       volScalarField;
    location    "0.014";
    object      kappatr;
}
// * * * * * * * * * * * * * * * * * * * * * * * * * * * * * * * * * * * * * //

dimensions      [1 1 -3 -1 0 0 0];


internalField   nonuniform List<scalar> 
15860
(
0.00767492892034
0.00767492891781
0.00767492891594
0.00767492891408
0.00767492888752
0.00767492878754
0.00767492861146
0.00767492842971
0.00767492819473
0.00767492820628
0.00767492167453
0.00767489517296
0.00767486831665
0.00767487893617
0.00767410742659
0.00767259968472
0.00769128075237
0.0080796148437
0.00890132651289
0.00958767537005
0.0171275197593
0.0492984086752
0.134033889114
0.154121252962
0.164168667905
0.172353617423
0.182620127651
0.194785022241
0.195828018615
0.191737920764
0.190224330275
0.188285600093
0.190515418477
0.193937356271
0.194971809085
0.195950895335
0.197421833446
0.198241902632
0.198622100451
0.198735916346
0.197574978357
0.195746145265
0.193844693641
0.195959862996
0.19663848562
0.196298882518
0.195513123848
0.194946465826
0.194691573967
0.194610771867
0.194682132617
0.194708042876
0.1947168183
0.194934368573
0.195042828392
0.195103039618
0.195134195366
0.195063976588
0.194628208287
0.193790432173
0.192836466644
0.19392410939
0.193840269148
0.19384498852
0.193419300102
0.193104249684
0.192948604987
0.192783105594
0.192755199971
0.192632210354
0.192615360957
0.192505021217
0.192550451968
0.192617369813
0.192073683481
0.00767492892474
0.00767492892474
0.00767492892473
0.00767492892473
0.00767492892468
0.00767492892449
0.00767492892418
0.00767492892383
0.00767492892348
0.00767492892427
0.00767492891018
0.00767492885753
0.00767492881079
0.00767492888615
0.00767492756946
0.00767492564021
0.00767504935344
0.00767626415867
0.0076785359615
0.00768106338182
0.00772603432462
0.0084659255607
0.0126855136117
0.0143527997644
0.0150467380303
0.015588589647
0.0161792519848
0.0166763219598
0.0185123010524
0.0755319063959
0.156571675893
0.183239865187
0.186740314738
0.188564017268
0.189632466753
0.190364366851
0.190832649437
0.191240741169
0.191550618758
0.193089211034
0.193829599521
0.193917271327
0.19137875011
0.194733509411
0.195220152238
0.195195689625
0.197924858649
0.199269208715
0.200353317574
0.20115776918
0.202124271715
0.202816597321
0.203292074189
0.203284481874
0.203259339937
0.203200086406
0.2031800399
0.203193731287
0.202775465454
0.201683605504
0.199850755815
0.201106291473
0.200737136951
0.200636462136
0.200159918313
0.199905125177
0.199795223995
0.199599750492
0.199579053146
0.199421231878
0.199396532919
0.199259874645
0.199292653497
0.199301871383
0.198756185078
0.00767492892475
0.00767492892476
0.00767492892475
0.00767492892475
0.00767492892474
0.00767492892474
0.00767492892474
0.00767492892475
0.00767492892474
0.00767492892476
0.00767492892482
0.00767492892491
0.00767492892525
0.00767492892912
0.00767492893923
0.00767492896623
0.00767492956575
0.0076749332642
0.00767493918061
0.00767494755048
0.00767512342844
0.00767837866126
0.00769327573652
0.00770124769406
0.00770518780965
0.00770849943681
0.00771216906233
0.00771526531097
0.00774780101041
0.00929350044027
0.0145749464133
0.0167326383292
0.0168572485618
0.016846106521
0.0167798214129
0.0167136344976
0.0166538219277
0.0166095332731
0.0165743720282
0.0165815283802
0.0165581830979
0.0184991767704
0.0812603456841
0.14820021959
0.168983969869
0.183522307071
0.187590045626
0.189765078183
0.191220238317
0.192146164753
0.192855558832
0.193391945611
0.193817014799
0.195041816987
0.195863678611
0.196540941796
0.197137895044
0.197853869923
0.198366346229
0.198540964677
0.196536037489
0.198814238985
0.198489523305
0.19810996096
0.19910667024
0.200721422844
0.201905972702
0.20250960133
0.203210620015
0.203529550019
0.203984626031
0.204167558225
0.204540534575
0.204758270433
0.204117232825
0.00767492892475
0.00767492892476
0.00767492892475
0.00767492892475
0.00767492892474
0.00767492892474
0.00767492892474
0.00767492892474
0.00767492892474
0.00767492892473
0.00767492892473
0.00767492892473
0.00767492892474
0.00767492892477
0.00767492892486
0.00767492892511
0.00767492892857
0.00767492894204
0.00767492895972
0.0076749289959
0.00767492983167
0.00767494243747
0.00767498162438
0.00767500363341
0.0076750153352
0.00767502545875
0.00767503630209
0.00767504534775
0.00767523598761
0.00768133080128
0.00770274457724
0.00771458063074
0.00771571748635
0.00771600826443
0.00771597871953
0.0077159308264
0.00771590256203
0.00771594764117
0.00771603758902
0.00771634722162
0.00771641540322
0.00775017715129
0.00947520573988
0.0140926856062
0.0159878473455
0.0170859451269
0.0171967504601
0.0171653821233
0.0170967458994
0.0170245749011
0.0169691657344
0.0169314711437
0.0169020757748
0.0169168320787
0.0169206178197
0.017041493046
0.0299591263457
0.0557879350463
0.0716364537132
0.0843711447981
0.103129512172
0.151448695921
0.166304387345
0.178733530051
0.185601116684
0.187828214355
0.189429566807
0.190408315564
0.191342520832
0.191879708798
0.192463442384
0.192760952538
0.193181288567
0.193444364436
0.193104213217
0.00767492892474
0.00767492892476
0.00767492892475
0.00767492892475
0.00767492892474
0.00767492892474
0.00767492892474
0.00767492892474
0.00767492892474
0.00767492892473
0.00767492892473
0.00767492892473
0.00767492892473
0.00767492892474
0.00767492892473
0.00767492892474
0.00767492892475
0.00767492892484
0.00767492892493
0.00767492892521
0.00767492893125
0.00767492898259
0.00767492909465
0.00767492915759
0.00767492919351
0.00767492922555
0.00767492925759
0.00767492928254
0.00767493036267
0.00767495156489
0.00767500875992
0.00767504090948
0.00767504509712
0.00767504701607
0.00767504809819
0.00767504906206
0.00767505001973
0.00767505112374
0.00767505233268
0.0076750540506
0.00767505464014
0.00767526246728
0.0076816708914
0.00770094692622
0.00771144489928
0.00771826504269
0.00771934599699
0.0077195153633
0.0077194295009
0.00771929362135
0.00771923708736
0.00771926557912
0.00771933029903
0.00771963973897
0.00771985069999
0.0077216118009
0.00785610571282
0.00835326413263
0.00886644662355
0.00940544028548
0.0105231870358
0.0144846104326
0.0159742552286
0.0170410105004
0.0175018856423
0.017572948609
0.0175987864124
0.017592518542
0.0175839554824
0.0175620304704
0.0175423774192
0.0175167616949
0.0174923265784
0.0174760357647
0.0174965692815
0.00767492892474
0.00767492892475
0.00767492892476
0.00767492892475
0.00767492892474
0.00767492892475
0.00767492892474
0.00767492892474
0.00767492892474
0.00767492892473
0.00767492892473
0.00767492892473
0.00767492892474
0.00767492892474
0.00767492892473
0.00767492892473
0.00767492892473
0.00767492892474
0.00767492892475
0.00767492892476
0.00767492892481
0.0076749289251
0.00767492892556
0.00767492892577
0.0076749289259
0.00767492892601
0.00767492892613
0.00767492892632
0.00767492893309
0.00767492900867
0.00767492916728
0.00767492925472
0.00767492926929
0.00767492927918
0.00767492928696
0.00767492929412
0.00767492930096
0.00767492930797
0.0076749293152
0.00767492932335
0.00767492932201
0.00767493045082
0.00767495153687
0.00767500472968
0.00767503460337
0.00767505447683
0.00767505876841
0.00767506045173
0.00767506134277
0.00767506199223
0.00767506278103
0.00767506372301
0.00767506471693
0.00767506630901
0.00767506753384
0.00767507982852
0.00767551811673
0.00767704106623
0.00767871414692
0.00768061852452
0.00768503462382
0.00770314409615
0.00771159814991
0.00771822295206
0.00772135052762
0.0077220043443
0.00772234721843
0.00772245928992
0.00772254723384
0.00772252668322
0.00772251340984
0.00772244135996
0.00772237330993
0.00772233573248
0.00772247621388
0.00767492892474
0.00767492892474
0.00767492892475
0.00767492892475
0.00767492892474
0.00767492892474
0.00767492892474
0.00767492892474
0.00767492892474
0.00767492892473
0.00767492892473
0.00767492892473
0.00767492892474
0.00767492892474
0.00767492892473
0.00767492892473
0.00767492892473
0.00767492892474
0.00767492892475
0.00767492892476
0.00767492892476
0.00767492892477
0.00767492892477
0.00767492892476
0.00767492892476
0.00767492892476
0.00767492892475
0.00767492892474
0.00767492892479
0.00767492892515
0.00767492892572
0.00767492892598
0.00767492892603
0.00767492892608
0.00767492892614
0.00767492892619
0.00767492892623
0.00767492892627
0.00767492892631
0.00767492892635
0.00767492892644
0.00767492893303
0.00767492900437
0.00767492915482
0.00767492923906
0.00767492929796
0.00767492931476
0.00767492932434
0.0076749293314
0.00767492933734
0.00767492934335
0.00767492934945
0.00767492935548
0.00767492936286
0.00767492936833
0.0076749294294
0.00767493082057
0.00767493518103
0.00767493999921
0.0076749456366
0.00767495926984
0.00767501127703
0.00767503592556
0.007675055481
0.00767506514597
0.00767506766453
0.00767506925078
0.00767507007324
0.00767507082384
0.00767507115862
0.00767507151833
0.00767507161276
0.00767507173366
0.00767507185091
0.00767507221639
0.00767492892474
0.00767492892474
0.00767492892475
0.00767492892475
0.00767492892474
0.00767492892474
0.00767492892474
0.00767492892474
0.00767492892474
0.00767492892473
0.00767492892473
0.00767492892473
0.00767492892474
0.00767492892474
0.00767492892473
0.00767492892473
0.00767492892473
0.00767492892473
0.00767492892475
0.00767492892476
0.00767492892476
0.00767492892476
0.00767492892476
0.00767492892476
0.00767492892475
0.00767492892475
0.00767492892474
0.00767492892473
0.00767492892474
0.00767492892474
0.00767492892475
0.00767492892475
0.00767492892476
0.00767492892476
0.00767492892476
0.00767492892477
0.00767492892477
0.00767492892477
0.00767492892476
0.00767492892476
0.00767492892476
0.0076749289248
0.00767492892512
0.00767492892564
0.0076749289259
0.0076749289261
0.00767492892616
0.00767492892622
0.00767492892627
0.0076749289263
0.00767492892634
0.00767492892638
0.00767492892642
0.00767492892645
0.00767492892649
0.00767492892692
0.00767492893163
0.00767492894442
0.00767492895843
0.00767492897566
0.00767492902021
0.00767492917612
0.00767492924921
0.00767492930857
0.00767492933952
0.00767492934949
0.00767492935646
0.00767492936092
0.00767492936494
0.00767492936753
0.00767492937002
0.00767492937158
0.00767492937313
0.00767492937422
0.00767492937493
0.00767492892474
0.00767492892474
0.00767492892475
0.00767492892475
0.00767492892474
0.00767492892474
0.00767492892474
0.00767492892474
0.00767492892474
0.00767492892473
0.00767492892473
0.00767492892473
0.00767492892473
0.00767492892474
0.00767492892473
0.00767492892473
0.00767492892473
0.00767492892473
0.00767492892474
0.00767492892475
0.00767492892476
0.00767492892477
0.00767492892477
0.00767492892476
0.00767492892475
0.00767492892475
0.00767492892474
0.00767492892474
0.00767492892474
0.00767492892474
0.00767492892475
0.00767492892475
0.00767492892475
0.00767492892475
0.00767492892475
0.00767492892476
0.00767492892476
0.00767492892476
0.00767492892475
0.00767492892475
0.00767492892475
0.00767492892474
0.00767492892475
0.00767492892475
0.00767492892475
0.00767492892475
0.00767492892475
0.00767492892474
0.00767492892475
0.00767492892474
0.00767492892473
0.00767492892474
0.00767492892475
0.00767492892474
0.00767492892474
0.00767492892476
0.00767492892479
0.00767492892484
0.00767492892489
0.00767492892494
0.00767492892511
0.00767492892567
0.00767492892591
0.00767492892611
0.00767492892622
0.00767492892626
0.0076749289263
0.00767492892631
0.00767492892633
0.00767492892634
0.00767492892635
0.00767492892639
0.00767492892639
0.0076749289264
0.00767492892641
0.00767492892474
0.00767492892474
0.00767492892474
0.00767492892475
0.00767492892475
0.00767492892474
0.00767492892474
0.00767492892474
0.00767492892474
0.00767492892473
0.00767492892473
0.00767492892473
0.00767492892473
0.00767492892474
0.00767492892473
0.00767492892473
0.00767492892473
0.00767492892473
0.00767492892475
0.00767492892475
0.00767492892476
0.00767492892476
0.00767492892476
0.00767492892476
0.00767492892475
0.00767492892475
0.00767492892475
0.00767492892474
0.00767492892474
0.00767492892474
0.00767492892474
0.00767492892475
0.00767492892475
0.00767492892475
0.00767492892475
0.00767492892475
0.00767492892476
0.00767492892476
0.00767492892475
0.00767492892475
0.00767492892475
0.00767492892474
0.00767492892475
0.00767492892475
0.00767492892475
0.00767492892475
0.00767492892474
0.00767492892474
0.00767492892474
0.00767492892473
0.00767492892472
0.00767492892473
0.00767492892474
0.00767492892473
0.00767492892473
0.00767492892475
0.00767492892476
0.00767492892476
0.00767492892476
0.00767492892475
0.00767492892473
0.00767492892475
0.00767492892474
0.00767492892475
0.00767492892475
0.00767492892475
0.00767492892476
0.00767492892474
0.00767492892474
0.00767492892473
0.00767492892473
0.00767492892475
0.00767492892475
0.00767492892474
0.00767492892476
0.00767492892474
0.00767492892474
0.00767492892474
0.00767492892475
0.00767492892475
0.00767492892474
0.00767492892474
0.00767492892474
0.00767492892474
0.00767492892474
0.00767492892473
0.00767492892473
0.00767492892473
0.00767492892474
0.00767492892474
0.00767492892474
0.00767492892474
0.00767492892473
0.00767492892474
0.00767492892475
0.00767492892476
0.00767492892476
0.00767492892476
0.00767492892476
0.00767492892475
0.00767492892475
0.00767492892475
0.00767492892474
0.00767492892474
0.00767492892474
0.00767492892475
0.00767492892475
0.00767492892475
0.00767492892475
0.00767492892475
0.00767492892476
0.00767492892476
0.00767492892476
0.00767492892475
0.00767492892475
0.00767492892475
0.00767492892475
0.00767492892475
0.00767492892475
0.00767492892475
0.00767492892475
0.00767492892474
0.00767492892474
0.00767492892475
0.00767492892473
0.00767492892473
0.00767492892473
0.00767492892473
0.00767492892472
0.00767492892473
0.00767492892474
0.00767492892476
0.00767492892476
0.00767492892476
0.00767492892475
0.00767492892473
0.00767492892474
0.00767492892473
0.00767492892474
0.00767492892475
0.00767492892474
0.00767492892475
0.00767492892473
0.00767492892473
0.00767492892472
0.00767492892472
0.00767492892474
0.00767492892474
0.00767492892473
0.00767492892475
0.00767492892475
0.00767492892474
0.00767492892474
0.00767492892474
0.00767492892475
0.00767492892474
0.00767492892474
0.00767492892474
0.00767492892474
0.00767492892474
0.00767492892473
0.00767492892473
0.00767492892473
0.00767492892473
0.00767492892474
0.00767492892474
0.00767492892474
0.00767492892473
0.00767492892474
0.00767492892475
0.00767492892475
0.00767492892476
0.00767492892476
0.00767492892476
0.00767492892475
0.00767492892474
0.00767492892475
0.00767492892475
0.00767492892473
0.00767492892474
0.00767492892475
0.00767492892475
0.00767492892475
0.00767492892475
0.00767492892475
0.00767492892475
0.00767492892476
0.00767492892476
0.00767492892475
0.00767492892475
0.00767492892475
0.00767492892475
0.00767492892475
0.00767492892474
0.00767492892475
0.00767492892475
0.00767492892474
0.00767492892474
0.00767492892474
0.00767492892473
0.00767492892473
0.00767492892473
0.00767492892473
0.00767492892472
0.00767492892473
0.00767492892474
0.00767492892475
0.00767492892476
0.00767492892476
0.00767492892476
0.00767492892474
0.00767492892474
0.00767492892474
0.00767492892474
0.00767492892474
0.00767492892474
0.00767492892475
0.00767492892473
0.00767492892473
0.00767492892472
0.00767492892472
0.00767492892474
0.00767492892474
0.00767492892473
0.00767492892475
0.00767492892474
0.00767492892474
0.00767492892474
0.00767492892475
0.00767492892474
0.00767492892475
0.00767492892474
0.00767492892473
0.00767492892474
0.00767492892474
0.00767492892473
0.00767492892473
0.00767492892473
0.00767492892473
0.00767492892474
0.00767492892474
0.00767492892474
0.00767492892473
0.00767492892473
0.00767492892475
0.00767492892475
0.00767492892476
0.00767492892476
0.00767492892477
0.00767492892475
0.00767492892474
0.00767492892475
0.00767492892475
0.00767492892474
0.00767492892474
0.00767492892474
0.00767492892474
0.00767492892475
0.00767492892475
0.00767492892475
0.00767492892475
0.00767492892476
0.00767492892476
0.00767492892476
0.00767492892475
0.00767492892475
0.00767492892475
0.00767492892475
0.00767492892475
0.00767492892475
0.00767492892475
0.00767492892474
0.00767492892473
0.00767492892473
0.00767492892473
0.00767492892472
0.00767492892473
0.00767492892474
0.00767492892472
0.00767492892473
0.00767492892474
0.00767492892475
0.00767492892477
0.00767492892476
0.00767492892476
0.00767492892474
0.00767492892474
0.00767492892474
0.00767492892474
0.00767492892474
0.00767492892474
0.00767492892475
0.00767492892473
0.00767492892474
0.00767492892472
0.00767492892473
0.00767492892474
0.00767492892474
0.00767492892474
0.00767492892475
0.00767492892474
0.00767492892474
0.00767492892474
0.00767492892475
0.00767492892475
0.00767492892475
0.00767492892474
0.00767492892474
0.00767492892474
0.00767492892474
0.00767492892474
0.00767492892473
0.00767492892473
0.00767492892473
0.00767492892474
0.00767492892474
0.00767492892474
0.00767492892473
0.00767492892473
0.00767492892474
0.00767492892475
0.00767492892475
0.00767492892476
0.00767492892477
0.00767492892476
0.00767492892475
0.00767492892474
0.00767492892475
0.00767492892474
0.00767492892473
0.00767492892474
0.00767492892474
0.00767492892475
0.00767492892475
0.00767492892475
0.00767492892474
0.00767492892475
0.00767492892476
0.00767492892475
0.00767492892475
0.00767492892475
0.00767492892475
0.00767492892475
0.00767492892474
0.00767492892475
0.00767492892476
0.00767492892474
0.00767492892474
0.00767492892473
0.00767492892473
0.00767492892473
0.00767492892473
0.00767492892473
0.00767492892472
0.00767492892472
0.00767492892474
0.00767492892475
0.00767492892477
0.00767492892476
0.00767492892476
0.00767492892473
0.00767492892473
0.00767492892474
0.00767492892474
0.00767492892474
0.00767492892474
0.00767492892475
0.00767492892473
0.00767492892473
0.00767492892472
0.00767492892473
0.00767492892474
0.00767492892474
0.00767492892473
0.00767492892475
0.00767492892474
0.00767492892474
0.00767492892474
0.00767492892475
0.00767492892475
0.00767492892475
0.00767492892475
0.00767492892474
0.00767492892474
0.00767492892475
0.00767492892474
0.00767492892473
0.00767492892473
0.00767492892473
0.00767492892473
0.00767492892474
0.00767492892474
0.00767492892474
0.00767492892474
0.00767492892474
0.00767492892474
0.00767492892475
0.00767492892475
0.00767492892477
0.00767492892476
0.00767492892475
0.00767492892475
0.00767492892475
0.00767492892473
0.00767492892473
0.00767492892474
0.00767492892474
0.00767492892475
0.00767492892475
0.00767492892475
0.00767492892474
0.00767492892474
0.00767492892476
0.00767492892476
0.00767492892476
0.00767492892475
0.00767492892475
0.00767492892475
0.00767492892474
0.00767492892475
0.00767492892476
0.00767492892474
0.00767492892473
0.00767492892473
0.00767492892473
0.00767492892473
0.00767492892473
0.00767492892474
0.00767492892472
0.00767492892472
0.00767492892474
0.00767492892475
0.00767492892477
0.00767492892476
0.00767492892475
0.00767492892474
0.00767492892473
0.00767492892474
0.00767492892474
0.00767492892474
0.00767492892474
0.00767492892475
0.00767492892473
0.00767492892473
0.00767492892472
0.00767492892473
0.00767492892474
0.00767492892474
0.00767492892474
0.00767492892475
0.00767492892474
0.00767492892474
0.00767492892473
0.00767492892474
0.00767492892475
0.00767492892475
0.00767492892475
0.00767492892474
0.00767492892474
0.00767492892475
0.00767492892474
0.00767492892474
0.00767492892473
0.00767492892473
0.00767492892473
0.00767492892474
0.00767492892475
0.00767492892474
0.00767492892474
0.00767492892475
0.00767492892475
0.00767492892474
0.00767492892475
0.00767492892477
0.00767492892476
0.00767492892476
0.00767492892474
0.00767492892474
0.00767492892473
0.00767492892473
0.00767492892474
0.00767492892474
0.00767492892475
0.00767492892475
0.00767492892475
0.00767492892475
0.00767492892475
0.00767492892476
0.00767492892476
0.00767492892476
0.00767492892475
0.00767492892475
0.00767492892475
0.00767492892474
0.00767492892475
0.00767492892476
0.00767492892474
0.00767492892473
0.00767492892473
0.00767492892473
0.00767492892473
0.00767492892474
0.00767492892474
0.00767492892473
0.00767492892472
0.00767492892474
0.00767492892475
0.00767492892476
0.00767492892476
0.00767492892475
0.00767492892474
0.00767492892474
0.00767492892474
0.00767492892474
0.00767492892474
0.00767492892474
0.00767492892475
0.00767492892473
0.00767492892473
0.00767492892472
0.00767492892473
0.00767492892474
0.00767492892474
0.00767492892474
0.00767492892475
0.00767492892474
0.00767492892474
0.00767492892474
0.00767492892474
0.00767492892475
0.00767492892475
0.00767492892475
0.00767492892474
0.00767492892474
0.00767492892474
0.00767492892474
0.00767492892474
0.00767492892473
0.00767492892474
0.00767492892474
0.00767492892474
0.00767492892474
0.00767492892474
0.00767492892473
0.00767492892475
0.00767492892475
0.00767492892475
0.00767492892475
0.00767492892476
0.00767492892476
0.00767492892475
0.00767492892474
0.00767492892474
0.00767492892474
0.00767492892473
0.00767492892474
0.00767492892474
0.00767492892475
0.00767492892475
0.00767492892475
0.00767492892475
0.00767492892475
0.00767492892476
0.00767492892476
0.00767492892477
0.00767492892476
0.00767492892475
0.00767492892476
0.00767492892474
0.00767492892475
0.00767492892475
0.00767492892474
0.00767492892473
0.00767492892473
0.00767492892473
0.00767492892474
0.00767492892473
0.00767492892474
0.00767492892473
0.00767492892472
0.00767492892474
0.00767492892475
0.00767492892476
0.00767492892476
0.00767492892475
0.00767492892474
0.00767492892473
0.00767492892474
0.00767492892473
0.00767492892474
0.00767492892474
0.00767492892475
0.00767492892473
0.00767492892473
0.00767492892472
0.00767492892473
0.00767492892474
0.00767492892474
0.00767492892474
0.00767492892475
0.00767492892474
0.00767492892474
0.00767492892473
0.00767492892472
0.00767492892473
0.00767492892474
0.00767492892475
0.00767492892475
0.00767492892474
0.00767492892475
0.00767492892474
0.00767492892473
0.00767492892473
0.00767492892474
0.00767492892474
0.00767492892474
0.00767492892474
0.00767492892473
0.00767492892474
0.00767492892474
0.00767492892475
0.00767492892475
0.00767492892475
0.00767492892476
0.00767492892476
0.00767492892476
0.00767492892475
0.00767492892475
0.00767492892475
0.00767492892474
0.00767492892473
0.00767492892474
0.00767492892474
0.00767492892475
0.00767492892475
0.00767492892475
0.00767492892475
0.00767492892476
0.00767492892476
0.00767492892476
0.00767492892476
0.00767492892474
0.00767492892475
0.00767492892474
0.00767492892475
0.00767492892475
0.00767492892474
0.00767492892473
0.00767492892473
0.00767492892472
0.00767492892474
0.00767492892473
0.00767492892474
0.00767492892473
0.00767492892472
0.00767492892474
0.00767492892475
0.00767492892476
0.00767492892476
0.00767492892476
0.00767492892474
0.00767492892473
0.00767492892475
0.00767492892473
0.00767492892474
0.00767492892473
0.00767492892474
0.00767492892473
0.00767492892473
0.00767492892472
0.00767492892472
0.00767492892474
0.00767492892474
0.00767492892474
0.00767492892475
0.00767492892474
0.00767492892474
0.00767492892474
0.00767492892473
0.00767492892472
0.00767492892472
0.00767492892474
0.00767492892475
0.00767492892473
0.00767492892474
0.00767492892474
0.00767492892473
0.00767492892472
0.00767492892474
0.00767492892475
0.00767492892473
0.00767492892474
0.00767492892474
0.00767492892474
0.00767492892474
0.00767492892474
0.00767492892475
0.00767492892475
0.00767492892475
0.00767492892476
0.00767492892476
0.00767492892475
0.00767492892476
0.00767492892475
0.00767492892474
0.00767492892473
0.00767492892474
0.00767492892475
0.00767492892474
0.00767492892475
0.00767492892474
0.00767492892475
0.00767492892476
0.00767492892476
0.00767492892476
0.00767492892476
0.00767492892475
0.00767492892475
0.00767492892474
0.00767492892475
0.00767492892476
0.00767492892474
0.00767492892473
0.00767492892473
0.00767492892473
0.00767492892474
0.00767492892473
0.00767492892474
0.00767492892474
0.00767492892472
0.00767492892474
0.00767492892475
0.00767492892476
0.00767492892475
0.00767492892476
0.00767492892475
0.00767492892472
0.00767492892475
0.00767492892474
0.00767492892473
0.00767492892473
0.00767492892474
0.00767492892472
0.00767492892474
0.00767492892472
0.00767492892473
0.00767492892474
0.00767492892474
0.00767492892474
0.00767492892476
0.00767492892473
0.00767492892474
0.00767492892474
0.00767492892474
0.00767492892472
0.00767492892472
0.00767492892474
0.00767492892475
0.00767492892474
0.00767492892474
0.00767492892475
0.00767492892475
0.00767492892473
0.00767492892474
0.00767492892475
0.00767492892474
0.00767492892473
0.00767492892473
0.00767492892473
0.00767492892473
0.00767492892475
0.00767492892475
0.00767492892475
0.00767492892475
0.00767492892474
0.00767492892475
0.00767492892475
0.00767492892476
0.00767492892476
0.00767492892475
0.00767492892473
0.00767492892474
0.00767492892475
0.00767492892475
0.00767492892476
0.00767492892476
0.00767492892475
0.00767492892475
0.00767492892476
0.00767492892476
0.00767492892477
0.00767492892475
0.00767492892475
0.00767492892474
0.00767492892474
0.00767492892476
0.00767492892474
0.00767492892473
0.00767492892473
0.00767492892473
0.00767492892474
0.00767492892474
0.00767492892474
0.00767492892473
0.00767492892472
0.00767492892474
0.00767492892475
0.00767492892476
0.00767492892475
0.00767492892476
0.00767492892475
0.00767492892473
0.00767492892475
0.00767492892474
0.00767492892472
0.00767492892471
0.00767492892474
0.00767492892473
0.00767492892474
0.00767492892473
0.00767492892473
0.00767492892474
0.00767492892474
0.00767492892475
0.00767492892475
0.00767492892473
0.00767492892474
0.00767492892474
0.00767492892474
0.00767492892473
0.00767492892473
0.00767492892473
0.00767492892475
0.00767492892474
0.00767492892474
0.00767492892474
0.00767492892475
0.00767492892473
0.00767492892474
0.00767492892475
0.00767492892474
0.00767492892474
0.00767492892473
0.00767492892473
0.00767492892473
0.00767492892475
0.00767492892475
0.00767492892475
0.00767492892475
0.00767492892474
0.00767492892475
0.00767492892476
0.00767492892476
0.00767492892477
0.00767492892476
0.00767492892474
0.00767492892474
0.00767492892473
0.00767492892475
0.00767492892475
0.00767492892476
0.00767492892475
0.00767492892475
0.00767492892476
0.00767492892475
0.00767492892477
0.00767492892475
0.00767492892476
0.00767492892474
0.00767492892474
0.00767492892475
0.00767492892474
0.00767492892473
0.00767492892473
0.00767492892474
0.00767492892474
0.00767492892474
0.00767492892475
0.00767492892473
0.00767492892472
0.00767492892473
0.00767492892474
0.00767492892476
0.00767492892475
0.00767492892475
0.00767492892475
0.00767492892474
0.00767492892476
0.00767492892474
0.00767492892472
0.00767492892472
0.00767492892475
0.00767492892474
0.00767492892474
0.00767492892473
0.00767492892473
0.00767492892475
0.00767492892474
0.00767492892474
0.00767492892476
0.00767492892473
0.00767492892474
0.00767492892473
0.00767492892474
0.00767492892474
0.00767492892474
0.00767492892474
0.00767492892474
0.00767492892474
0.00767492892473
0.00767492892473
0.00767492892474
0.00767492892474
0.00767492892475
0.00767492892476
0.00767492892475
0.00767492892473
0.00767492892473
0.00767492892473
0.00767492892473
0.00767492892475
0.00767492892474
0.00767492892475
0.00767492892475
0.00767492892474
0.00767492892475
0.00767492892475
0.00767492892476
0.00767492892476
0.00767492892476
0.00767492892475
0.00767492892474
0.00767492892474
0.00767492892475
0.00767492892476
0.00767492892476
0.00767492892475
0.00767492892475
0.00767492892475
0.00767492892474
0.00767492892476
0.00767492892476
0.00767492892476
0.00767492892474
0.00767492892473
0.00767492892476
0.00767492892474
0.00767492892473
0.00767492892473
0.00767492892473
0.00767492892474
0.00767492892473
0.00767492892474
0.00767492892474
0.00767492892473
0.00767492892474
0.00767492892474
0.00767492892476
0.00767492892475
0.00767492892475
0.00767492892476
0.00767492892474
0.00767492892476
0.00767492892474
0.00767492892472
0.00767492892472
0.00767492892475
0.00767492892474
0.00767492892474
0.00767492892474
0.00767492892473
0.00767492892475
0.00767492892474
0.00767492892474
0.00767492892475
0.00767492892473
0.00767492892474
0.00767492892473
0.00767492892474
0.00767492892475
0.00767492892475
0.00767492892475
0.00767492892475
0.00767492892474
0.00767492892473
0.00767492892473
0.00767492892474
0.00767492892474
0.00767492892474
0.00767492892475
0.00767492892476
0.00767492892474
0.00767492892472
0.00767492892472
0.00767492892473
0.00767492892475
0.00767492892475
0.00767492892475
0.00767492892475
0.00767492892475
0.00767492892475
0.00767492892474
0.00767492892475
0.00767492892475
0.00767492892475
0.00767492892475
0.00767492892474
0.00767492892474
0.00767492892474
0.00767492892475
0.00767492892475
0.00767492892475
0.00767492892475
0.00767492892474
0.00767492892474
0.00767492892475
0.00767492892475
0.00767492892476
0.00767492892474
0.00767492892473
0.00767492892474
0.00767492892474
0.00767492892473
0.00767492892473
0.00767492892473
0.00767492892474
0.00767492892474
0.00767492892475
0.00767492892474
0.00767492892473
0.00767492892474
0.00767492892475
0.00767492892475
0.00767492892475
0.00767492892475
0.00767492892475
0.00767492892474
0.00767492892476
0.00767492892474
0.00767492892473
0.00767492892472
0.00767492892475
0.00767492892475
0.00767492892475
0.00767492892474
0.00767492892473
0.00767492892475
0.00767492892474
0.00767492892475
0.00767492892475
0.00767492892473
0.00767492892473
0.00767492892473
0.00767492892473
0.00767492892475
0.00767492892475
0.00767492892475
0.00767492892474
0.00767492892474
0.00767492892473
0.00767492892473