/*--------------------------------*- C++ -*----------------------------------*\
| =========                 |                                                 |
| \\      /  F ield         | OpenFOAM: The Open Source CFD Toolbox           |
|  \\    /   O peration     | Version:  v1706                                 |
|   \\  /    A nd           | Web:      www.OpenFOAM.com                      |
|    \\/     M anipulation  |                                                 |
\*---------------------------------------------------------------------------*/
FoamFile
{
    version     2.0;
    format      ascii;
    class       volScalarField;
    location    "0.014";
    object      Mach;
}
// * * * * * * * * * * * * * * * * * * * * * * * * * * * * * * * * * * * * * //

dimensions      [0 0 0 0 0 0 0];


internalField   nonuniform List<scalar> 
15860
(
27.81266277
27.8126627738
27.8126627768
27.8126627787
27.8126628043
27.8126629438
27.8126632047
27.8126634956
27.8126638884
27.8126637895
27.8126750818
27.8127201359
27.8127667813
27.8126983983
27.8139041331
27.8164140702
27.775865192
26.9574656492
25.3987091558
24.2530527026
16.790994322
8.09441926155
2.8272004088
2.11227196951
1.84857244228
1.69305016132
1.54292705114
1.39883258227
1.35519518504
1.34309993481
1.20389684809
1.19455233116
1.12800696963
1.07669710924
1.032111284
0.993867328422
0.958958265082
0.931870543631
0.914286318364
0.90171432553
0.896927367733
0.885876087341
0.829238781114
0.753858913312
0.712211464639
0.681236764772
0.655423740033
0.629474572758
0.603701209887
0.578316876414
0.555010338161
0.533219156887
0.512070347379
0.495632399107
0.479998556381
0.460822397582
0.448639612545
0.442785514254
0.442155406383
0.441548275085
0.421819038744
0.366626781767
0.334849809469
0.313353960745
0.291316610667
0.27271919597
0.254603463847
0.239472271256
0.224898083184
0.212415759716
0.200832813144
0.191110268907
0.181989226655
0.178737517991
0.186072113244
27.8126627633
27.8126627633
27.8126627633
27.8126627633
27.8126627633
27.8126627631
27.8126627629
27.8126627628
27.8126627624
27.8126627575
27.8126627493
27.8126627761
27.8126627915
27.812662369
27.8126612394
27.8126566341
27.8123682687
27.8095709529
27.8043855731
27.7988495398
27.702470781
26.2028741337
20.3855879055
18.8148371552
18.2357169226
17.8149596093
17.3846974728
17.0403214518
16.0776844407
6.16627182735
2.71034893585
2.08600312482
1.94136858142
1.83305988239
1.72903187367
1.63539671297
1.55202873926
1.47728535784
1.41251041261
1.34287291527
1.28622924182
1.24016045439
1.1588503602
0.93992865633
0.864874428999
0.82452842785
0.779420350999
0.736964975832
0.697236453449
0.658044239055
0.617714228521
0.58095197805
0.549708553195
0.525557265704
0.508478433121
0.49747694088
0.480958153194
0.46887532946
0.465038877295
0.467429157262
0.459268732667
0.396173106254
0.350043960569
0.320764494639
0.297154320778
0.278919695731
0.260806520416
0.245605180752
0.231005450964
0.218576378469
0.207155913479
0.19775475731
0.189029052225
0.184858739997
0.191248089221
27.8126627633
27.8126627633
27.8126627633
27.8126627633
27.8126627633
27.8126627633
27.8126627633
27.8126627633
27.8126627633
27.8126627632
27.8126627628
27.8126627614
27.8126627595
27.8126627441
27.8126626715
27.8126625194
27.8126610564
27.8126505463
27.8126327761
27.8126077168
27.812192272
27.8049778407
27.7714408795
27.7532531003
27.7442231391
27.736733721
27.7284896791
27.7214848352
27.6506100904
24.7785899413
18.6995021223
17.0848056265
16.9849077686
16.9769856769
17.004804867
17.0339334292
17.0603397474
17.0777435315
17.0901614315
17.0738878041
17.0784464745
16.0045056643
5.52953440142
2.58965440274
2.08207677548
1.76984797037
1.61155773206
1.48751512923
1.38004505285
1.28829391393
1.20684383896
1.13423820574
1.06421404056
0.996331367254
0.933889820574
0.877312619752
0.828315075862
0.781404106946
0.747647617876
0.732915748595
0.723751976943
0.55962573647
0.482410276426
0.447507637514
0.414322241043
0.387362549427
0.361798007543
0.341579496199
0.322339292043
0.306830282016
0.292153008393
0.280709844386
0.26890423176
0.261568657829
0.268448743775
27.8126627633
27.8126627633
27.8126627633
27.8126627633
27.8126627633
27.8126627634
27.8126627634
27.8126627633
27.8126627634
27.8126627634
27.8126627634
27.8126627634
27.8126627633
27.8126627632
27.8126627626
27.8126627611
27.8126627493
27.8126626946
27.8126626166
27.8126625319
27.8126605025
27.8126262948
27.812520414
27.812461157
27.8124299206
27.8124038198
27.8123765252
27.8123523706
27.8119690364
27.7987104568
27.751036011
27.7245171041
27.7216662728
27.7207160946
27.7204711846
27.7202876411
27.7200882313
27.7197516189
27.719337601
27.718439166
27.7181481465
27.6448159305
24.4813540074
19.0961686133
17.5999198645
16.8418460818
16.7505196054
16.7514083132
16.7773910408
16.8077547766
16.8290046239
16.840503704
16.8478374305
16.8275657432
16.8144021355
16.7284167664
11.5402362094
7.38198870065
6.03933006045
5.24241050929
4.32690231945
2.39816638693
1.97868794307
1.71783210208
1.55692620244
1.46051345575
1.38097982701
1.32169199962
1.26462726451
1.22141282154
1.17759561316
1.14527385367
1.10782650657
1.08396112971
1.10941620673
27.8126627633
27.8126627633
27.8126627633
27.8126627633
27.8126627634
27.8126627634
27.8126627634
27.8126627634
27.8126627634
27.8126627634
27.8126627634
27.8126627634
27.8126627634
27.8126627634
27.8126627634
27.8126627633
27.8126627633
27.8126627628
27.8126627622
27.8126627607
27.8126627419
27.8126625858
27.8126621578
27.8126619007
27.8126617549
27.8126616354
27.8126615159
27.8126614328
27.8126586526
27.8126060538
27.8124599956
27.8123784569
27.8123654443
27.8123582187
27.8123529308
27.8123481073
27.8123434996
27.8123387144
27.8123338078
27.8123275249
27.812323798
27.8118875168
27.797768989
27.7547127116
27.7313312861
27.7160015081
27.7132257338
27.7124906045
27.712343424
27.7123446303
27.7121977245
27.7118914703
27.7115271921
27.7106406348
27.7100047538
27.7061942883
27.4176563704
26.4206748726
25.4846016236
24.589087987
22.9555463083
18.7575455871
17.6019833353
16.8719273871
16.5701734846
16.5159490797
16.4900084009
16.4874985908
16.4840234463
16.4927361831
16.4975380294
16.5097804695
16.5186829838
16.52470228
16.5176364441
27.8126627634
27.8126627633
27.8126627633
27.8126627633
27.8126627634
27.8126627633
27.8126627634
27.8126627634
27.8126627634
27.8126627634
27.8126627634
27.8126627634
27.8126627634
27.8126627634
27.8126627634
27.8126627634
27.8126627634
27.8126627634
27.8126627633
27.8126627633
27.8126627632
27.8126627616
27.8126627585
27.8126627569
27.812662756
27.8126627553
27.8126627546
27.8126627534
27.8126627402
27.8126625327
27.8126619805
27.8126616601
27.8126615824
27.8126615239
27.8126614719
27.8126614231
27.8126613771
27.8126613322
27.8126612881
27.8126612409
27.8126612251
27.812658419
27.8126057346
27.8124712731
27.8123972432
27.8123467641
27.8123328149
27.8123253467
27.8123199879
27.8123155205
27.8123109819
27.8123063201
27.8123017465
27.8122958775
27.8122909074
27.8122598486
27.8112833298
27.8079100012
27.8042101821
27.8000137682
27.7902506284
27.7496907791
27.7308159298
27.7160438426
27.7089443181
27.7072890769
27.7063523079
27.7059404692
27.7056159842
27.7055305307
27.705457629
27.705512189
27.7055688733
27.705587296
27.705333157
27.8126627634
27.8126627633
27.8126627633
27.8126627633
27.8126627634
27.8126627634
27.8126627634
27.8126627633
27.8126627634
27.8126627634
27.8126627634
27.8126627634
27.8126627634
27.8126627634
27.8126627634
27.8126627634
27.8126627634
27.8126627634
27.8126627633
27.8126627633
27.8126627633
27.8126627633
27.8126627633
27.8126627633
27.8126627633
27.8126627633
27.8126627633
27.8126627633
27.8126627631
27.8126627615
27.8126627582
27.8126627565
27.8126627559
27.8126627555
27.812662755
27.8126627546
27.8126627542
27.8126627539
27.8126627535
27.8126627532
27.8126627526
27.8126627377
27.8126625259
27.8126620115
27.8126617259
27.8126615145
27.8126614275
27.8126613658
27.8126613137
27.812661268
27.8126612238
27.8126611816
27.8126611411
27.8126610973
27.8126610595
27.8126609108
27.8126571655
27.8126460231
27.8126341395
27.81262059
27.8125873826
27.81245685
27.8123958726
27.812348071
27.8123233192
27.8123155079
27.8123099627
27.8123069099
27.8123035586
27.8123019468
27.8122997673
27.8122989382
27.8122975198
27.8122965315
27.8122966558
27.8126627634
27.8126627634
27.8126627633
27.8126627633
27.8126627634
27.8126627634
27.8126627634
27.8126627634
27.8126627634
27.8126627634
27.8126627634
27.8126627634
27.8126627634
27.8126627634
27.8126627634
27.8126627634
27.8126627634
27.8126627634
27.8126627633
27.8126627633
27.8126627633
27.8126627633
27.8126627633
27.8126627633
27.8126627633
27.8126627633
27.8126627634
27.8126627634
27.8126627634
27.8126627633
27.8126627633
27.8126627633
27.8126627633
27.8126627633
27.8126627633
27.8126627632
27.8126627632
27.8126627632
27.8126627633
27.8126627633
27.8126627633
27.8126627631
27.8126627616
27.8126627587
27.8126627571
27.8126627559
27.8126627553
27.8126627548
27.8126627543
27.8126627539
27.8126627535
27.8126627532
27.8126627528
27.8126627524
27.8126627521
27.8126627506
27.8126627354
27.8126626954
27.8126626526
27.8126626027
27.8126624678
27.8126619391
27.8126616933
27.812661496
27.8126613828
27.8126613333
27.8126612959
27.8126612676
27.8126612436
27.8126612239
27.812661207
27.8126611928
27.8126611795
27.8126611698
27.8126611729
27.8126627634
27.8126627634
27.8126627633
27.8126627633
27.8126627634
27.8126627634
27.8126627633
27.8126627634
27.8126627634
27.8126627634
27.8126627634
27.8126627634
27.8126627634
27.8126627634
27.8126627634
27.8126627634
27.8126627634
27.8126627634
27.8126627633
27.8126627633
27.8126627633
27.8126627633
27.8126627633
27.8126627633
27.8126627633
27.8126627633
27.8126627634
27.8126627634
27.8126627634
27.8126627633
27.8126627633
27.8126627633
27.8126627633
27.8126627633
27.8126627633
27.8126627633
27.8126627633
27.8126627633
27.8126627633
27.8126627633
27.8126627633
27.8126627633
27.8126627633
27.8126627633
27.8126627633
27.8126627633
27.8126627633
27.8126627633
27.8126627633
27.8126627633
27.8126627633
27.8126627633
27.8126627633
27.8126627633
27.8126627633
27.8126627632
27.8126627631
27.8126627628
27.8126627626
27.8126627623
27.8126627615
27.8126627585
27.8126627571
27.8126627561
27.8126627554
27.8126627551
27.8126627548
27.8126627546
27.8126627544
27.8126627542
27.8126627541
27.8126627539
27.8126627538
27.8126627537
27.8126627537
27.8126627634
27.8126627634
27.8126627634
27.8126627633
27.8126627633
27.8126627634
27.8126627634
27.8126627634
27.8126627634
27.8126627634
27.8126627634
27.8126627634
27.8126627634
27.8126627634
27.8126627634
27.8126627634
27.8126627634
27.8126627634
27.8126627633
27.8126627633
27.8126627633
27.8126627633
27.8126627633
27.8126627633
27.8126627633
27.8126627633
27.8126627633
27.8126627634
27.8126627634
27.8126627634
27.8126627634
27.8126627633
27.8126627633
27.8126627633
27.8126627633
27.8126627633
27.8126627633
27.8126627633
27.8126627633
27.8126627633
27.8126627633
27.8126627633
27.8126627633
27.8126627633
27.8126627633
27.8126627633
27.8126627634
27.8126627634
27.8126627634
27.8126627634
27.8126627634
27.8126627634
27.8126627634
27.8126627634
27.8126627634
27.8126627633
27.8126627633
27.8126627633
27.8126627633
27.8126627633
27.8126627634
27.8126627633
27.8126627633
27.8126627633
27.8126627633
27.8126627633
27.8126627633
27.8126627633
27.8126627633
27.8126627633
27.8126627633
27.8126627633
27.8126627633
27.8126627633
27.8126627633
27.8126627634
27.8126627634
27.8126627634
27.8126627633
27.8126627633
27.8126627634
27.8126627634
27.8126627634
27.8126627634
27.8126627634
27.8126627634
27.8126627634
27.8126627634
27.8126627634
27.8126627634
27.8126627634
27.8126627634
27.8126627634
27.8126627634
27.8126627633
27.8126627633
27.8126627633
27.8126627633
27.8126627633
27.8126627633
27.8126627633
27.8126627633
27.8126627634
27.8126627634
27.8126627634
27.8126627633
27.8126627633
27.8126627633
27.8126627633
27.8126627633
27.8126627633
27.8126627633
27.8126627633
27.8126627633
27.8126627633
27.8126627633
27.8126627633
27.8126627633
27.8126627633
27.8126627633
27.8126627633
27.8126627634
27.8126627634
27.8126627633
27.8126627634
27.8126627634
27.8126627634
27.8126627634
27.8126627634
27.8126627634
27.8126627633
27.8126627633
27.8126627633
27.8126627633
27.8126627633
27.8126627634
27.8126627634
27.8126627634
27.8126627634
27.8126627633
27.8126627634
27.8126627633
27.8126627634
27.8126627634
27.8126627634
27.8126627634
27.8126627634
27.8126627634
27.8126627634
27.8126627633
27.8126627633
27.8126627634
27.8126627634
27.8126627633
27.8126627633
27.8126627634
27.8126627634
27.8126627634
27.8126627634
27.8126627634
27.8126627634
27.8126627634
27.8126627634
27.8126627634
27.8126627634
27.8126627634
27.8126627634
27.8126627634
27.8126627634
27.8126627633
27.8126627633
27.8126627633
27.8126627633
27.8126627633
27.8126627633
27.8126627633
27.8126627633
27.8126627633
27.8126627634
27.8126627634
27.8126627633
27.8126627633
27.8126627633
27.8126627633
27.8126627633
27.8126627633
27.8126627633
27.8126627633
27.8126627633
27.8126627633
27.8126627633
27.8126627633
27.8126627633
27.8126627633
27.8126627633
27.8126627633
27.8126627634
27.8126627634
27.8126627634
27.8126627634
27.8126627634
27.8126627634
27.8126627634
27.8126627634
27.8126627634
27.8126627634
27.8126627633
27.8126627633
27.8126627633
27.8126627633
27.8126627634
27.8126627634
27.8126627634
27.8126627634
27.8126627633
27.8126627634
27.8126627633
27.8126627634
27.8126627634
27.8126627634
27.8126627634
27.8126627634
27.8126627634
27.8126627634
27.8126627633
27.8126627634
27.8126627634
27.8126627634
27.8126627633
27.8126627633
27.8126627633
27.8126627634
27.8126627634
27.8126627634
27.8126627634
27.8126627634
27.8126627634
27.8126627634
27.8126627634
27.8126627634
27.8126627634
27.8126627634
27.8126627634
27.8126627634
27.8126627633
27.8126627633
27.8126627633
27.8126627633
27.8126627633
27.8126627633
27.8126627634
27.8126627633
27.8126627633
27.8126627634
27.8126627634
27.8126627633
27.8126627634
27.8126627633
27.8126627633
27.8126627633
27.8126627633
27.8126627633
27.8126627633
27.8126627633
27.8126627633
27.8126627633
27.8126627633
27.8126627633
27.8126627633
27.8126627633
27.8126627633
27.8126627634
27.8126627634
27.8126627634
27.8126627634
27.8126627634
27.8126627634
27.8126627634
27.8126627634
27.8126627634
27.8126627634
27.8126627633
27.8126627633
27.8126627633
27.8126627633
27.8126627634
27.8126627634
27.8126627634
27.8126627634
27.8126627634
27.8126627633
27.8126627633
27.8126627634
27.8126627634
27.8126627634
27.8126627634
27.8126627634
27.8126627634
27.8126627634
27.8126627633
27.8126627634
27.8126627634
27.8126627634
27.8126627633
27.8126627633
27.8126627633
27.8126627633
27.8126627634
27.8126627634
27.8126627634
27.8126627634
27.8126627634
27.8126627634
27.8126627634
27.8126627634
27.8126627634
27.8126627634
27.8126627634
27.8126627634
27.8126627634
27.8126627633
27.8126627633
27.8126627633
27.8126627633
27.8126627633
27.8126627633
27.8126627633
27.8126627633
27.8126627634
27.8126627634
27.8126627634
27.8126627634
27.8126627633
27.8126627633
27.8126627633
27.8126627634
27.8126627633
27.8126627633
27.8126627633
27.8126627633
27.8126627633
27.8126627633
27.8126627633
27.8126627633
27.8126627633
27.8126627633
27.8126627634
27.8126627634
27.8126627634
27.8126627634
27.8126627634
27.8126627634
27.8126627634
27.8126627634
27.8126627634
27.8126627634
27.8126627633
27.8126627633
27.8126627633
27.8126627633
27.8126627634
27.8126627634
27.8126627634
27.8126627634
27.8126627634
27.8126627634
27.8126627633
27.8126627634
27.8126627634
27.8126627634
27.8126627634
27.8126627634
27.8126627634
27.8126627634
27.8126627633
27.8126627634
27.8126627634
27.8126627634
27.8126627633
27.8126627633
27.8126627633
27.8126627633
27.8126627634
27.8126627634
27.8126627633
27.8126627634
27.8126627634
27.8126627634
27.8126627634
27.8126627634
27.8126627634
27.8126627633
27.8126627634
27.8126627634
27.8126627634
27.8126627633
27.8126627633
27.8126627633
27.8126627633
27.8126627633
27.8126627633
27.8126627633
27.8126627633
27.8126627634
27.8126627634
27.8126627634
27.8126627634
27.8126627633
27.8126627633
27.8126627633
27.8126627633
27.8126627634
27.8126627633
27.8126627633
27.8126627633
27.8126627633
27.8126627633
27.8126627633
27.8126627634
27.8126627633
27.8126627633
27.8126627634
27.8126627634
27.8126627634
27.8126627634
27.8126627634
27.8126627634
27.8126627634
27.8126627634
27.8126627634
27.8126627634
27.8126627633
27.8126627633
27.8126627633
27.8126627633
27.8126627634
27.8126627634
27.8126627634
27.8126627634
27.8126627634
27.8126627633
27.8126627633
27.8126627634
27.8126627634
27.8126627634
27.8126627634
27.8126627634
27.8126627634
27.8126627634
27.8126627633
27.8126627634
27.8126627634
27.8126627634
27.8126627633
27.8126627633
27.8126627633
27.8126627633
27.8126627634
27.8126627634
27.8126627633
27.8126627634
27.8126627634
27.8126627634
27.8126627634
27.8126627634
27.8126627634
27.8126627633
27.8126627634
27.8126627634
27.8126627633
27.8126627633
27.8126627633
27.8126627633
27.8126627633
27.8126627633
27.8126627633
27.8126627634
27.8126627633
27.8126627634
27.8126627634
27.8126627634
27.8126627634
27.8126627633
27.8126627633
27.8126627633
27.8126627633
27.8126627633
27.8126627633
27.8126627633
27.8126627633
27.8126627633
27.8126627633
27.8126627633
27.8126627633
27.8126627633
27.8126627633
27.8126627634
27.8126627634
27.8126627634
27.8126627634
27.8126627634
27.8126627634
27.8126627634
27.8126627634
27.8126627634
27.8126627634
27.8126627633
27.8126627633
27.8126627633
27.8126627633
27.8126627634
27.8126627634
27.8126627634
27.8126627634
27.8126627633
27.8126627633
27.8126627633
27.8126627634
27.8126627634
27.8126627634
27.8126627634
27.8126627633
27.8126627634
27.8126627633
27.8126627633
27.8126627634
27.8126627634
27.8126627634
27.8126627634
27.8126627633
27.8126627633
27.8126627633
27.8126627634
27.8126627634
27.8126627634
27.8126627634
27.8126627634
27.8126627634
27.8126627634
27.8126627634
27.8126627634
27.8126627634
27.8126627634
27.8126627634
27.8126627633
27.8126627633
27.8126627633
27.8126627633
27.8126627633
27.8126627633
27.8126627633
27.8126627634
27.8126627634
27.8126627634
27.8126627634
27.8126627634
27.8126627633
27.8126627633
27.8126627633
27.8126627633
27.8126627633
27.8126627633
27.8126627633
27.8126627633
27.8126627633
27.8126627633
27.8126627633
27.8126627633
27.8126627633
27.8126627633
27.8126627633
27.8126627634
27.8126627634
27.8126627634
27.8126627634
27.8126627634
27.8126627634
27.8126627634
27.8126627634
27.8126627634
27.8126627634
27.8126627633
27.8126627633
27.8126627633
27.8126627633
27.8126627634
27.8126627634
27.8126627634
27.8126627634
27.8126627634
27.8126627634
27.8126627633
27.8126627634
27.8126627634
27.8126627634
27.8126627634
27.8126627634
27.8126627633
27.8126627634
27.8126627633
27.8126627634
27.8126627634
27.8126627634
27.8126627634
27.8126627634
27.8126627634
27.8126627633
27.8126627633
27.8126627634
27.8126627633
27.8126627634
27.8126627634
27.8126627634
27.8126627634
27.8126627633
27.8126627634
27.8126627634
27.8126627634
27.8126627634
27.8126627634
27.8126627633
27.8126627633
27.8126627633
27.8126627633
27.8126627633
27.8126627633
27.8126627633
27.8126627633
27.8126627633
27.8126627634
27.8126627634
27.8126627634
27.8126627633
27.8126627633
27.8126627633
27.8126627633
27.8126627633
27.8126627633
27.8126627633
27.8126627633
27.8126627633
27.8126627634
27.8126627633
27.8126627633
27.8126627633
27.8126627633
27.8126627634
27.8126627634
27.8126627634
27.8126627634
27.8126627634
27.8126627634
27.8126627633
27.8126627634
27.8126627634
27.8126627634
27.8126627633
27.8126627633
27.8126627633
27.8126627633
27.8126627634
27.8126627634
27.8126627633
27.8126627634
27.8126627634
27.8126627634
27.8126627634
27.8126627634
27.8126627634
27.8126627634
27.8126627634
27.8126627634
27.8126627634
27.8126627634
27.8126627633
27.8126627634
27.8126627634
27.8126627634
27.8126627634
27.8126627634
27.8126627634
27.8126627634
27.8126627633
27.8126627634
27.8126627634
27.8126627634
27.8126627634
27.8126627634
27.8126627634
27.8126627633
27.8126627634
27.8126627634
27.8126627634
27.8126627634
27.8126627634
27.8126627633
27.8126627633
27.8126627633
27.8126627633
27.8126627633
27.8126627633
27.8126627633
27.8126627633
27.8126627633
27.8126627634
27.8126627634
27.8126627634
27.8126627633
27.8126627634
27.8126627633
27.8126627633
27.8126627633
27.8126627633
27.8126627633
27.8126627633
27.8126627633
27.8126627633
27.8126627633
27.8126627634
27.8126627633
27.8126627633
27.8126627634
27.8126627634
27.8126627634
27.8126627634
27.8126627633
27.8126627634
27.8126627634
27.8126627634
27.8126627634
27.8126627634
27.8126627633
27.8126627633
27.8126627633
27.8126627633
27.8126627633
27.8126627634
27.8126627633
27.8126627634
27.8126627634
27.8126627634
27.8126627633
27.8126627634
27.8126627634
27.8126627634
27.8126627634
27.8126627634
27.8126627634
27.8126627634
27.8126627633
27.8126627634
27.8126627634
27.8126627634
27.8126627634
27.8126627634
27.8126627634
27.8126627634
27.8126627633
27.8126627633
27.8126627634
27.8126627633
27.8126627633
27.8126627634
27.8126627634
27.8126627633
27.8126627634
27.8126627634
27.8126627634
27.8126627634
27.8126627634
27.8126627633
27.8126627633
27.8126627633
27.8126627633
27.8126627634
27.8126627633
27.8126627633
27.8126627633
27.8126627633
27.8126627633
27.8126627634
27.8126627634
27.8126627633
27.8126627633
27.8126627633
27.8126627633
27.8126627633
27.8126627633
27.8126627633
27.8126627633
27.8126627633
27.8126627633
27.8126627633
27.8126627634
27.8126627633
27.8126627633
27.8126627634
27.8126627634
27.8126627634
27.8126627634
27.8126627633
27.8126627634
27.8126627634
27.8126627634
27.8126627634
27.8126627634
27.8126627633
27.8126627633
27.8126627633
27.8126627633
27.8126627633
27.8126627634
27.8126627633
27.8126627634
27.8126627634
27.8126627634
27.8126627633
27.8126627634
27.8126627634
27.8126627634
27.8126627634
27.8126627634
27.8126627634
27.8126627633
27.8126627633
27.8126627634
27.8126627634
27.8126627634
27.8126627633
27.8126627634
27.8126627634
27.8126627634
27.8126627633
27.8126627633
27.8126627634
27.8126627634
27.8126627633
27.8126627634
27.8126627634
27.8126627633
27.8126627634
27.8126627634
27.8126627634
27.8126627634
27.8126627634
27.8126627633
27.8126627633
27.8126627633
27.8126627633
27.8126627634
27.8126627633
27.8126627633
27.8126627633
27.8126627633
27.8126627633
27.8126627634
27.8126627634
27.8126627634
27.8126627633
27.8126627633
27.8126627633
27.8126627633
27.8126627633
27.8126627633
27.8126627633
27.8126627633
27.8126627633
27.8126627633
27.8126627634
27.8126627633
27.8126627633
27.8126627634
27.8126627634
27.8126627634
27.8126627634
27.8126627634
27.8126627634
27.8126627633
27.8126627634
27.8126627634
27.8126627634
27.8126627634
27.8126627633
27.8126627633
27.8126627633
27.8126627633
27.8126627634
27.8126627633
27.8126627634
27.8126627634
27.8126627634
27.8126627633
27.8126627634
27.8126627634
27.8126627634
27.8126627634
27.8126627633
27.8126627634
27.8126627634
27.8126627633
27.8126627634
27.8126627634
27.8126627634
27.8126627633
27.8126627634
27.8126627634
27.8126627634
27.8126627634
27.8126627634
27.8126627634
27.8126627634
27.8126627634
27.8126627634
27.8126627633
27.8126627633
27.8126627633
27.8126627634
27.8126627634
27.8126627634
27.8126627634
27.8126627633
27.8126627633
27.8126627633
27.8126627633
27.8126627634
27.8126627633
27.8126627633
27.8126627633
27.8126627633
27.8126627633
27.8126627633
27.8126627634
27.8126627634
27.8126627633
27.8126627633
27.8126627633
27.8126627633
27.8126627633
27.8126627633
27.8126627633
27.8126627633
27.8126627633
27.8126627633
27.8126627634
27.8126627634
27.8126627633
27.8126627634
27.8126627634
27.8126627634
27.8126627634
27.8126627634
27.8126627634
27.8126627634
27.8126627634
27.8126627634
27.8126627634
27.8126627634
27.8126627633
27.8126627633
27.8126627633
27.8126627633
27.8126627634
27.8126627633
27.8126627634
27.8126627634
27.8126627634
27.8126627633
27.8126627633
27.8126627634
27.8126627634
27.8126627634
27.8126627633
27.8126627634
27.8126627634
27.8126627633
27.8126627634
27.8126627634
27.8126627634
27.8126627634
27.8126627633
27.8126627633
27.8126627633
27.8126627633
27.8126627634
27.8126627634
27.8126627634
27.8126627634
27.8126627633
27.8126627634
27.8126627633
27.8126627633
27.8126627634
27.8126627634
27.8126627634
27.8126627634
27.8126627633
27.8126627633
27.8126627633
27.8126627633
27.8126627633
27.8126627633
27.8126627634
27.8126627633
27.8126627633
27.8126627633
27.8126627633
27.8126627634
27.8126627634
27.8126627634
27.8126627633
27.8126627633
27.8126627633
27.8126627633
27.8126627634
27.8126627634
27.8126627633
27.8126627633
27.8126627633
27.8126627633
27.8126627634
27.8126627633
27.8126627634
27.8126627634
27.8126627634
27.8126627634
27.8126627634
27.8126627634
27.8126627633
27.8126627634
27.8126627634
27.8126627633
27.8126627633
27.8126627633
27.8126627633
27.8126627633
27.8126627633
27.8126627634
27.8126627633
27.8126627633
27.8126627634
27.8126627634
27.8126627633
27.8126627633
27.8126627633
27.8126627634
27.8126627634
27.8126627633
27.8126627634
27.8126627633
27.8126627633
27.8126627634
27.8126627634
27.8126627634
27.8126627634
27.8126627633
27.8126627633
27.8126627633
27.8126627633
27.8126627634
27.8126627634
27.8126627634
27.8126627634
27.8126627634
27.8126627634
27.8126627633
27.8126627633
27.8126627633
27.8126627634
27.8126627634
27.8126627634
27.8126627633
27.8126627633
27.8126627633
27.8126627633
27.8126627633
27.8126627633
27.8126627633
27.8126627633
27.8126627633
27.8126627633
27.8126627633
27.8126627633
27.8126627634
27.8126627634
27.8126627633
27.8126627633
27.8126627633
27.8126627633
27.8126627633
27.8126627633
27.8126627633
27.8126627633
27.8126627633
27.8126627633
27.8126627634
27.8126627634
27.8126627634
27.8126627634
27.8126627634
27.8126627634
27.8126627634
27.8126627634
27.8126627634
27.8126627633
27.8126627634
27.8126627634
27.8126627633
27.8126627633
27.8126627633
27.8126627633
27.8126627633
27.8126627634
27.8126627633
27.8126627634
27.8126627634
27.8126627634
27.8126627633
27.8126627633
27.8126627633
27.8126627633
27.8126627634
27.8126627633
27.8126627634
27.8126627633
27.8126627633
27.8126627634
27.8126627634
27.8126627634
27.8126627634
27.8126627634
27.8126627633
27.8126627633
27.8126627633
27.8126627633
27.8126627634
27.8126627634
27.8126627634
27.8126627634
27.8126627634
27.8126627634
27.8126627633
27.8126627634
27.8126627633
27.8126627634
27.8126627634
27.8126627633
27.8126627633
27.8126627634
27.8126627633
27.8126627634
27.8126627633
27.8126627634
27.8126627634
27.8126627633
27.8126627633
27.8126627634
27.8126627634
27.8126627634
27.8126627634
27.8126627634
27.8126627633
27.8126627633
27.8126627633
27.8126627633
27.8126627633
27.8126627633
27.8126627634
27.8126627633
27.8126627634
27.8126627634
27.8126627634
27.8126627634
27.8126627634
27.8126627634
27.8126627634
27.8126627634
27.8126627634
27.8126627633
27.8126627633
27.8126627634
27.8126627634
27.8126627633
27.8126627633
27.8126627634
27.8126627633
27.8126627634
27.8126627634
27.8126627633
27.8126627634
27.8126627634
27.8126627634
27.8126627634
27.8126627634
27.8126627634
27.8126627634
27.8126627634
27.8126627634
27.8126627634
27.8126627633
27.8126627633
27.8126627634
27.8126627634
27.8126627634
27.8126627633
27.8126627633
27.8126627634
27.8126627634
27.8126627633
27.8126627634
27.8126627634
27.8126627634
27.8126627634
27.8126627634
27.8126627633
27.8126627634
27.8126627634
27.8126627634
27.8126627634
27.8126627634
27.8126627634
27.8126627634
27.8126627633
27.8126627634
27.8126627634
27.8126627634
27.8126627634
27.8126627634
27.8126627633
27.8126627634
27.8126627633
27.8126627634
27.8126627634
27.8126627634
27.8126627634
27.8126627634
27.8126627634
27.8126627634
27.8126627633
27.8126627633
27.8126627634
27.8126627633
27.8126627634
27.8126627634
27.8126627634
27.8126627634
27.8126627634
27.8126627634
27.8126627634
27.8126627634
27.8126627634
27.8126627634
27.8126627633
27.8126627634
27.8126627634
27.8126627634
27.8126627634
27.8126627634
27.8126627633
27.8126627634
27.8126627633
27.8126627634
27.8126627634
27.8126627633
27.8126627633
27.8126627634
27.8126627634
27.8126627634
27.8126627633
27.8126627634
27.8126627634
27.8126627634
27.8126627633
27.8126627634
27.8126627634
27.8126627634
27.8126639264
27.8127082087
27.8121627799
27.2689554685
13.2487330893
2.54819792479
1.65832256047
1.72597723352
1.7319775259
1.7196483721
1.70444249512
1.68190468727
1.65145899367
1.61734138727
1.58157143267
1.54070496269
1.48485524716
1.40962034404
1.32041568709
1.22650513468
1.1403462789
1.06790626049
1.00783910037
0.958142219984
0.916388519944
0.879762057366
0.846564370805
0.813949492876
0.776335665315
0.730272461919
0.670118969037
0.591416054393
0.486764211336
0.346919447175
0.156277737022
27.8126646006
27.8127431837
27.8121440499
27.0042700766
11.7502752824
1.99791547889
1.68016698531
1.70227009133
1.71480772834
1.7017072336
1.68378671236
1.65937840408
1.62841124612
1.59638233121
1.56349067876
1.5245062033
1.46838688236
1.39256065519
1.3031454253
1.21032512326
1.12627146111
1.05644115175
0.998783716474
0.951136970493
0.910996235439
0.875547802128
0.843216038475
0.81160056609
0.775482911876
0.731555174919
0.674344259965
0.599051260247
0.497860380907
0.359988463567
0.166389426881
27.8126651113
27.8127711327
27.812492353
26.8496851224
11.1173305595
1.74847551949
1.70103115814
1.68606276736
1.68804317488
1.677567135
1.661757373
1.63696524582
1.60605418071
1.57676187622
1.54696552875
1.50980586123
1.45242359692
1.37556207386
1.28616804612
1.19454998577
1.11267955177
1.045120388
0.989724691919
0.943739557695
0.904891934056
0.87038127869
0.838868328065
0.808052651908
0.77301353813
0.730546948888
0.675440982292
0.602862405326
0.504690621233
0.368900757128
0.1738157913
27.8126652713
27.8127702158
27.8113608321
26.731121547
10.887218785
1.63137906126
1.68976928143
1.67447862301
1.66880178495
1.65637661059
1.63763666302
1.61316368521
1.5837512578
1.55757442408
1.53071195413
1.49384803301
1.4353330836
1.35731030569
1.26760707499
1.17721835257
1.09729500172
1.03204922735