/*--------------------------------*- C++ -*----------------------------------*\
| =========                 |                                                 |
| \\      /  F ield         | OpenFOAM: The Open Source CFD Toolbox           |
|  \\    /   O peration     | Version:  v1706                                 |
|   \\  /    A nd           | Web:      www.OpenFOAM.com                      |
|    \\/     M anipulation  |                                                 |
\*---------------------------------------------------------------------------*/
FoamFile
{
    version     2.0;
    format      ascii;
    class       volScalarField;
    location    "0.014";
    object      mu;
}
// * * * * * * * * * * * * * * * * * * * * * * * * * * * * * * * * * * * * * //

dimensions      [1 -1 -1 0 0 0 0];


internalField   nonuniform List<scalar> 
15860
(
7.73796781522e-06
7.73796781266e-06
7.73796781077e-06
7.7379678089e-06
7.73796778212e-06
7.73796768132e-06
7.73796750379e-06
7.73796732056e-06
7.73796708364e-06
7.73796709529e-06
7.73796050989e-06
7.73793379065e-06
7.73790671373e-06
7.73791742032e-06
7.73713957269e-06
7.7356194378e-06
7.75445387292e-06
8.14597698192e-06
8.97443237932e-06
9.66636947446e-06
1.72666920049e-05
4.96424451571e-05
0.000134191781213
0.000151259676132
0.000156345382171
0.000159894212993
0.000163622089886
0.000166061295525
0.00016252843164
0.000156710614975
0.000150944422206
0.000147649131771
0.000147659270611
0.000147771290802
0.000147436965965
0.000147197022668
0.000147147996455
0.000147004491021
0.000146780841515
0.000146349395207
0.000145407483299
0.000144082334325
0.000142249939596
0.000141580568164
0.000141224491725
0.000140421327726
0.000139312102419
0.000138532467939
0.00013796906974
0.000137559972316
0.000137280026243
0.00013705832805
0.000136867276108
0.000136820923232
0.000136703454022
0.000136545830987
0.000136414429003
0.000136280033215
0.000136066087097
0.000135700944753
0.000135002970334
0.000134498152563
0.000134410323743
0.000134294700949
0.00013387472276
0.000133503159317
0.00013324873302
0.000133064653977
0.000132920867597
0.000132789809323
0.000132682471702
0.00013257254627
0.000132483399947
0.000132487610544
0.000132523952616
7.73796781965e-06
7.73796781965e-06
7.73796781964e-06
7.73796781964e-06
7.73796781959e-06
7.7379678194e-06
7.73796781908e-06
7.73796781873e-06
7.73796781838e-06
7.73796781918e-06
7.73796780498e-06
7.73796775189e-06
7.73796770476e-06
7.73796778074e-06
7.73796645324e-06
7.73796450814e-06
7.73808923751e-06
7.73931402067e-06
7.74160448321e-06
7.74415266278e-06
7.78949297944e-06
8.53546139522e-06
1.27897075028e-05
1.44706880416e-05
1.51703255265e-05
1.57166228416e-05
1.63120901595e-05
1.68127915108e-05
1.86590112351e-05
7.58147975887e-05
0.000154153529425
0.000173087397127
0.000172791404043
0.000171467122128
0.00016957332179
0.000167696770829
0.00016592843222
0.000164361180594
0.000162935598955
0.000161819497159
0.0001605348372
0.000158697626512
0.000154990676113
0.00015293794735
0.000151443049465
0.000149869296103
0.000149984422498
0.000149694066223
0.00014940485442
0.000149158029563
0.000149046457372
0.000148934852267
0.000148771912314
0.000148327219848
0.000147861387859
0.000147415031959
0.000147057714039
0.000146725901771
0.000146313582898
0.00014570263283
0.000144591480007
0.0001435466324
0.000143004695841
0.000142594145085
0.000141916137572
0.000141394514107
0.000141016337307
0.000140719187967
0.000140482602032
0.000140268864221
0.000140089326654
0.000139922158198
0.00013977719111
0.000139703447833
0.000139739640823
7.73796781966e-06
7.73796781967e-06
7.73796781966e-06
7.73796781966e-06
7.73796781966e-06
7.73796781965e-06
7.73796781965e-06
7.73796781966e-06
7.73796781965e-06
7.73796781967e-06
7.73796781973e-06
7.73796781982e-06
7.73796782017e-06
7.73796782406e-06
7.73796783426e-06
7.73796786148e-06
7.73796846592e-06
7.73797219475e-06
7.73797815976e-06
7.73798659838e-06
7.73816392093e-06
7.74144589097e-06
7.75646532504e-06
7.76450276115e-06
7.76847523933e-06
7.77181406691e-06
7.77551383331e-06
7.77863551334e-06
7.81143844842e-06
9.369833655e-06
1.46946593806e-05
1.68700737425e-05
1.69957074754e-05
1.69844739181e-05
1.69176443698e-05
1.68509138202e-05
1.67906099674e-05
1.67459574787e-05
1.6710506686e-05
1.67177128478e-05
1.66940651682e-05
1.86494269256e-05
8.18469998813e-05
0.000148580009966
0.000165487360873
0.000173788806251
0.000173406815651
0.000171844036952
0.000169952427299
0.000168092875239
0.000166451038596
0.000165069672966
0.000163849666469
0.000163080703737
0.000162289099884
0.000161558670936
0.000160957247072
0.000160389372661
0.00015982236536
0.000159080183841
0.000157262887846
0.000155028648832
0.000153528872809
0.000152204729989
0.000151725932431
0.000151821419208
0.000151812206993
0.00015169836559
0.000151623918152
0.000151495445527
0.0001514076737
0.000151292002882
0.00015121030177
0.000151151851441
0.000151115554252
7.73796781966e-06
7.73796781967e-06
7.73796781966e-06
7.73796781966e-06
7.73796781966e-06
7.73796781965e-06
7.73796781965e-06
7.73796781965e-06
7.73796781965e-06
7.73796781964e-06
7.73796781964e-06
7.73796781964e-06
7.73796781965e-06
7.73796781969e-06
7.73796781977e-06
7.73796782002e-06
7.73796782351e-06
7.73796783709e-06
7.73796785492e-06
7.7379678914e-06
7.73796873403e-06
7.73798144337e-06
7.73802095215e-06
7.73804314195e-06
7.73805493985e-06
7.73806514655e-06
7.73807607895e-06
7.73808519892e-06
7.73827740461e-06
7.74442227873e-06
7.76601193915e-06
7.77794520941e-06
7.77909140272e-06
7.77938456913e-06
7.77935478157e-06
7.77930649506e-06
7.77927799853e-06
7.77932344794e-06
7.77941413458e-06
7.77972631039e-06
7.779795052e-06
7.81383410601e-06
9.55303141159e-06
1.420843747e-05
1.61191653341e-05
1.72262824655e-05
1.73379979108e-05
1.73063719267e-05
1.72371719514e-05
1.71644081685e-05
1.71085438923e-05
1.70705396929e-05
1.70409028818e-05
1.70557803882e-05
1.70595972237e-05
1.71814652698e-05
3.02051989169e-05
5.62461518329e-05
7.22247457456e-05
8.50615601659e-05
0.000103917359395
0.000151949326959
0.000164869282171
0.000173244958715
0.000176312635664
0.00017628867967
0.00017594088848
0.000175411566355
0.000174861087395
0.000174282308457
0.000173715186755
0.000173179392208
0.000172624158104
0.000172237328162
0.000172532900226
7.73796781965e-06
7.73796781967e-06
7.73796781966e-06
7.73796781966e-06
7.73796781965e-06
7.73796781965e-06
7.73796781965e-06
7.73796781965e-06
7.73796781965e-06
7.73796781964e-06
7.73796781964e-06
7.73796781964e-06
7.73796781965e-06
7.73796781965e-06
7.73796781964e-06
7.73796781965e-06
7.73796781966e-06
7.73796781975e-06
7.73796781984e-06
7.73796782012e-06
7.73796782621e-06
7.73796787798e-06
7.73796799095e-06
7.73796805442e-06
7.73796809063e-06
7.73796812293e-06
7.73796815523e-06
7.73796818039e-06
7.73796926939e-06
7.73799064576e-06
7.73804831057e-06
7.73808072419e-06
7.73808494622e-06
7.73808688094e-06
7.73808797194e-06
7.73808894373e-06
7.73808990927e-06
7.73809102235e-06
7.73809224122e-06
7.73809397324e-06
7.73809456763e-06
7.73830410178e-06
7.74476516222e-06
7.76419952293e-06
7.77478372227e-06
7.7816598837e-06
7.78274971654e-06
7.78292047396e-06
7.78283390632e-06
7.7826969107e-06
7.78263991236e-06
7.78266863814e-06
7.78273388964e-06
7.7830458712e-06
7.78325856497e-06
7.78503413089e-06
7.92063272373e-06
8.42187461033e-06
8.93927218355e-06
9.48269293075e-06
1.06096204202e-05
1.46035814151e-05
1.61054615767e-05
1.71809787634e-05
1.76456393553e-05
1.77172860057e-05
1.77433360308e-05
1.77370166786e-05
1.77283832852e-05
1.77062781897e-05
1.76864637159e-05
1.7660637594e-05
1.76360017769e-05
1.76195771568e-05
1.7640279328e-05
7.73796781965e-06
7.73796781966e-06
7.73796781967e-06
7.73796781966e-06
7.73796781965e-06
7.73796781966e-06
7.73796781965e-06
7.73796781965e-06
7.73796781965e-06
7.73796781964e-06
7.73796781964e-06
7.73796781964e-06
7.73796781965e-06
7.73796781965e-06
7.73796781964e-06
7.73796781964e-06
7.73796781964e-06
7.73796781965e-06
7.73796781966e-06
7.73796781967e-06
7.73796781972e-06
7.73796782001e-06
7.73796782047e-06
7.73796782069e-06
7.73796782082e-06
7.73796782093e-06
7.73796782105e-06
7.73796782124e-06
7.73796782806e-06
7.73796790427e-06
7.73796806418e-06
7.73796815234e-06
7.73796816703e-06
7.737968177e-06
7.73796818485e-06
7.73796819206e-06
7.73796819897e-06
7.73796820603e-06
7.73796821331e-06
7.73796822154e-06
7.73796822018e-06
7.73796935826e-06
7.7379906175e-06
7.73804424722e-06
7.73807436628e-06
7.73809440298e-06
7.73809872981e-06
7.73810042695e-06
7.73810132531e-06
7.7381019801e-06
7.73810277539e-06
7.7381037251e-06
7.73810472719e-06
7.73810633234e-06
7.73810756723e-06
7.7381199629e-06
7.73856185104e-06
7.74009730945e-06
7.74178413218e-06
7.7437041516e-06
7.74815652303e-06
7.76641473956e-06
7.77493823164e-06
7.78161744735e-06
7.7847707116e-06
7.78542989848e-06
7.78577558885e-06
7.78588858085e-06
7.78597724711e-06
7.7859565277e-06
7.78594314529e-06
7.78587050362e-06
7.78580189465e-06
7.78576400856e-06
7.78590564381e-06
7.73796781965e-06
7.73796781966e-06
7.73796781966e-06
7.73796781966e-06
7.73796781965e-06
7.73796781965e-06
7.73796781965e-06
7.73796781965e-06
7.73796781965e-06
7.73796781964e-06
7.73796781964e-06
7.73796781964e-06
7.73796781965e-06
7.73796781965e-06
7.73796781964e-06
7.73796781964e-06
7.73796781964e-06
7.73796781965e-06
7.73796781966e-06
7.73796781967e-06
7.73796781967e-06
7.73796781968e-06
7.73796781968e-06
7.73796781967e-06
7.73796781967e-06
7.73796781967e-06
7.73796781966e-06
7.73796781965e-06
7.73796781971e-06
7.73796782006e-06
7.73796782063e-06
7.7379678209e-06
7.73796782095e-06
7.73796782101e-06
7.73796782106e-06
7.73796782111e-06
7.73796782116e-06
7.73796782119e-06
7.73796782123e-06
7.73796782128e-06
7.73796782136e-06
7.73796782801e-06
7.73796789994e-06
7.73796805162e-06
7.73796813656e-06
7.73796819593e-06
7.73796821288e-06
7.73796822253e-06
7.73796822965e-06
7.73796823564e-06
7.7379682417e-06
7.73796824785e-06
7.73796825393e-06
7.73796826137e-06
7.73796826688e-06
7.73796832846e-06
7.73796973106e-06
7.73797412733e-06
7.73797898508e-06
7.73798466878e-06
7.73799841399e-06
7.73805084835e-06
7.73807569933e-06
7.73809541539e-06
7.73810515975e-06
7.738107699e-06
7.73810929828e-06
7.73811012749e-06
7.73811088425e-06
7.73811122179e-06
7.73811158445e-06
7.73811167965e-06
7.73811180155e-06
7.73811191976e-06
7.73811228824e-06
7.73796781965e-06
7.73796781965e-06
7.73796781966e-06
7.73796781966e-06
7.73796781965e-06
7.73796781965e-06
7.73796781965e-06
7.73796781965e-06
7.73796781965e-06
7.73796781964e-06
7.73796781964e-06
7.73796781964e-06
7.73796781965e-06
7.73796781965e-06
7.73796781964e-06
7.73796781964e-06
7.73796781964e-06
7.73796781964e-06
7.73796781966e-06
7.73796781967e-06
7.73796781967e-06
7.73796781967e-06
7.73796781967e-06
7.73796781967e-06
7.73796781966e-06
7.73796781966e-06
7.73796781965e-06
7.73796781964e-06
7.73796781965e-06
7.73796781965e-06
7.73796781966e-06
7.73796781966e-06
7.73796781967e-06
7.73796781967e-06
7.73796781967e-06
7.73796781968e-06
7.73796781968e-06
7.73796781968e-06
7.73796781967e-06
7.73796781967e-06
7.73796781967e-06
7.73796781971e-06
7.73796782003e-06
7.73796782056e-06
7.73796782082e-06
7.73796782102e-06
7.73796782109e-06
7.73796782114e-06
7.73796782119e-06
7.73796782122e-06
7.73796782126e-06
7.73796782131e-06
7.73796782135e-06
7.73796782138e-06
7.73796782142e-06
7.73796782185e-06
7.7379678266e-06
7.73796783949e-06
7.73796785362e-06
7.73796787099e-06
7.73796791591e-06
7.7379680731e-06
7.73796814679e-06
7.73796820663e-06
7.73796823783e-06
7.73796824789e-06
7.73796825492e-06
7.73796825941e-06
7.73796826347e-06
7.73796826608e-06
7.73796826859e-06
7.73796827016e-06
7.73796827172e-06
7.73796827282e-06
7.73796827354e-06
7.73796781965e-06
7.73796781965e-06
7.73796781966e-06
7.73796781966e-06
7.73796781965e-06
7.73796781965e-06
7.73796781965e-06
7.73796781965e-06
7.73796781965e-06
7.73796781964e-06
7.73796781964e-06
7.73796781964e-06
7.73796781964e-06
7.73796781965e-06
7.73796781964e-06
7.73796781964e-06
7.73796781964e-06
7.73796781964e-06
7.73796781965e-06
7.73796781967e-06
7.73796781967e-06
7.73796781968e-06
7.73796781968e-06
7.73796781967e-06
7.73796781966e-06
7.73796781966e-06
7.73796781965e-06
7.73796781965e-06
7.73796781965e-06
7.73796781965e-06
7.73796781966e-06
7.73796781966e-06
7.73796781966e-06
7.73796781966e-06
7.73796781966e-06
7.73796781967e-06
7.73796781967e-06
7.73796781967e-06
7.73796781966e-06
7.73796781966e-06
7.73796781966e-06
7.73796781966e-06
7.73796781966e-06
7.73796781967e-06
7.73796781966e-06
7.73796781966e-06
7.73796781966e-06
7.73796781966e-06
7.73796781966e-06
7.73796781965e-06
7.73796781964e-06
7.73796781965e-06
7.73796781966e-06
7.73796781965e-06
7.73796781965e-06
7.73796781967e-06
7.7379678197e-06
7.73796781975e-06
7.7379678198e-06
7.73796781985e-06
7.73796782002e-06
7.73796782059e-06
7.73796782083e-06
7.73796782103e-06
7.73796782114e-06
7.73796782118e-06
7.73796782123e-06
7.73796782123e-06
7.73796782126e-06
7.73796782126e-06
7.73796782128e-06
7.73796782131e-06
7.73796782132e-06
7.73796782133e-06
7.73796782134e-06
7.73796781965e-06
7.73796781965e-06
7.73796781965e-06
7.73796781966e-06
7.73796781966e-06
7.73796781965e-06
7.73796781965e-06
7.73796781965e-06
7.73796781965e-06
7.73796781965e-06
7.73796781964e-06
7.73796781964e-06
7.73796781964e-06
7.73796781965e-06
7.73796781964e-06
7.73796781964e-06
7.73796781964e-06
7.73796781964e-06
7.73796781966e-06
7.73796781967e-06
7.73796781967e-06
7.73796781967e-06
7.73796781967e-06
7.73796781967e-06
7.73796781966e-06
7.73796781966e-06
7.73796781966e-06
7.73796781965e-06
7.73796781965e-06
7.73796781965e-06
7.73796781965e-06
7.73796781966e-06
7.73796781966e-06
7.73796781966e-06
7.73796781966e-06
7.73796781967e-06
7.73796781967e-06
7.73796781967e-06
7.73796781966e-06
7.73796781966e-06
7.73796781966e-06
7.73796781965e-06
7.73796781966e-06
7.73796781966e-06
7.73796781966e-06
7.73796781966e-06
7.73796781965e-06
7.73796781965e-06
7.73796781965e-06
7.73796781964e-06
7.73796781963e-06
7.73796781964e-06
7.73796781965e-06
7.73796781964e-06
7.73796781964e-06
7.73796781966e-06
7.73796781967e-06
7.73796781967e-06
7.73796781967e-06
7.73796781966e-06
7.73796781964e-06
7.73796781966e-06
7.73796781965e-06
7.73796781966e-06
7.73796781966e-06
7.73796781966e-06
7.73796781967e-06
7.73796781965e-06
7.73796781965e-06
7.73796781964e-06
7.73796781964e-06
7.73796781966e-06
7.73796781966e-06
7.73796781965e-06
7.73796781967e-06
7.73796781965e-06
7.73796781965e-06
7.73796781965e-06
7.73796781966e-06
7.73796781966e-06
7.73796781965e-06
7.73796781965e-06
7.73796781965e-06
7.73796781965e-06
7.73796781965e-06
7.73796781964e-06
7.73796781964e-06
7.73796781964e-06
7.73796781965e-06
7.73796781965e-06
7.73796781965e-06
7.73796781965e-06
7.73796781964e-06
7.73796781965e-06
7.73796781967e-06
7.73796781967e-06
7.73796781967e-06
7.73796781967e-06
7.73796781967e-06
7.73796781966e-06
7.73796781966e-06
7.73796781966e-06
7.73796781965e-06
7.73796781965e-06
7.73796781965e-06
7.73796781966e-06
7.73796781966e-06
7.73796781966e-06
7.73796781966e-06
7.73796781966e-06
7.73796781967e-06
7.73796781967e-06
7.73796781967e-06
7.73796781966e-06
7.73796781966e-06
7.73796781966e-06
7.73796781966e-06
7.73796781966e-06
7.73796781966e-06
7.73796781966e-06
7.73796781966e-06
7.73796781965e-06
7.73796781965e-06
7.73796781966e-06
7.73796781964e-06
7.73796781964e-06
7.73796781964e-06
7.73796781964e-06
7.73796781963e-06
7.73796781964e-06
7.73796781965e-06
7.73796781967e-06
7.73796781967e-06
7.73796781967e-06
7.73796781966e-06
7.73796781964e-06
7.73796781965e-06
7.73796781964e-06
7.73796781965e-06
7.73796781966e-06
7.73796781965e-06
7.73796781966e-06
7.73796781964e-06
7.73796781964e-06
7.73796781963e-06
7.73796781963e-06
7.73796781965e-06
7.73796781965e-06
7.73796781964e-06
7.73796781966e-06
7.73796781966e-06
7.73796781965e-06
7.73796781965e-06
7.73796781965e-06
7.73796781966e-06
7.73796781965e-06
7.73796781965e-06
7.73796781965e-06
7.73796781965e-06
7.73796781965e-06
7.73796781964e-06
7.73796781964e-06
7.73796781964e-06
7.73796781965e-06
7.73796781965e-06
7.73796781965e-06
7.73796781965e-06
7.73796781964e-06
7.73796781965e-06
7.73796781966e-06
7.73796781966e-06
7.73796781967e-06
7.73796781967e-06
7.73796781967e-06
7.73796781966e-06
7.73796781965e-06
7.73796781966e-06
7.73796781966e-06
7.73796781964e-06
7.73796781965e-06
7.73796781966e-06
7.73796781966e-06
7.73796781966e-06
7.73796781966e-06
7.73796781966e-06
7.73796781966e-06
7.73796781967e-06
7.73796781967e-06
7.73796781966e-06
7.73796781966e-06
7.73796781966e-06
7.73796781966e-06
7.73796781966e-06
7.73796781966e-06
7.73796781966e-06
7.73796781966e-06
7.73796781965e-06
7.73796781965e-06
7.73796781965e-06
7.73796781964e-06
7.73796781964e-06
7.73796781964e-06
7.73796781964e-06
7.73796781963e-06
7.73796781964e-06
7.73796781965e-06
7.73796781966e-06
7.73796781967e-06
7.73796781967e-06
7.73796781967e-06
7.73796781965e-06
7.73796781965e-06
7.73796781965e-06
7.73796781965e-06
7.73796781966e-06
7.73796781965e-06
7.73796781966e-06
7.73796781964e-06
7.73796781964e-06
7.73796781963e-06
7.73796781963e-06
7.73796781965e-06
7.73796781965e-06
7.73796781964e-06
7.73796781966e-06
7.73796781965e-06
7.73796781965e-06
7.73796781965e-06
7.73796781966e-06
7.73796781965e-06
7.73796781966e-06
7.73796781965e-06
7.73796781965e-06
7.73796781965e-06
7.73796781965e-06
7.73796781964e-06
7.73796781964e-06
7.73796781964e-06
7.73796781964e-06
7.73796781965e-06
7.73796781965e-06
7.73796781965e-06
7.73796781964e-06
7.73796781964e-06
7.73796781966e-06
7.73796781966e-06
7.73796781967e-06
7.73796781967e-06
7.73796781968e-06
7.73796781966e-06
7.73796781965e-06
7.73796781966e-06
7.73796781966e-06
7.73796781965e-06
7.73796781965e-06
7.73796781965e-06
7.73796781965e-06
7.73796781966e-06
7.73796781966e-06
7.73796781966e-06
7.73796781966e-06
7.73796781967e-06
7.73796781967e-06
7.73796781967e-06
7.73796781966e-06
7.73796781966e-06
7.73796781966e-06
7.73796781966e-06
7.73796781966e-06
7.73796781966e-06
7.73796781967e-06
7.73796781965e-06
7.73796781965e-06
7.73796781964e-06
7.73796781964e-06
7.73796781963e-06
7.73796781964e-06
7.73796781965e-06
7.73796781963e-06
7.73796781964e-06
7.73796781965e-06
7.73796781966e-06
7.73796781968e-06
7.73796781967e-06
7.73796781967e-06
7.73796781965e-06
7.73796781965e-06
7.73796781965e-06
7.73796781965e-06
7.73796781965e-06
7.73796781965e-06
7.73796781966e-06
7.73796781964e-06
7.73796781965e-06
7.73796781963e-06
7.73796781964e-06
7.73796781965e-06
7.73796781965e-06
7.73796781965e-06
7.73796781966e-06
7.73796781965e-06
7.73796781965e-06
7.73796781965e-06
7.73796781966e-06
7.73796781966e-06
7.73796781966e-06
7.73796781965e-06
7.73796781965e-06
7.73796781965e-06
7.73796781965e-06
7.73796781965e-06
7.73796781964e-06
7.73796781964e-06
7.73796781964e-06
7.73796781965e-06
7.73796781965e-06
7.73796781965e-06
7.73796781965e-06
7.73796781964e-06
7.73796781965e-06
7.73796781966e-06
7.73796781966e-06
7.73796781967e-06
7.73796781968e-06
7.73796781967e-06
7.73796781966e-06
7.73796781966e-06
7.73796781966e-06
7.73796781965e-06
7.73796781964e-06
7.73796781965e-06
7.73796781965e-06
7.73796781966e-06
7.73796781966e-06
7.73796781966e-06
7.73796781965e-06
7.73796781966e-06
7.73796781967e-06
7.73796781966e-06
7.73796781966e-06
7.73796781966e-06
7.73796781966e-06
7.73796781966e-06
7.73796781966e-06
7.73796781966e-06
7.73796781967e-06
7.73796781965e-06
7.73796781965e-06
7.73796781964e-06
7.73796781964e-06
7.73796781964e-06
7.73796781964e-06
7.73796781965e-06
7.73796781963e-06
7.73796781963e-06
7.73796781965e-06
7.73796781966e-06
7.73796781968e-06
7.73796781967e-06
7.73796781967e-06
7.73796781964e-06
7.73796781964e-06
7.73796781965e-06
7.73796781965e-06
7.73796781965e-06
7.73796781965e-06
7.73796781966e-06
7.73796781964e-06
7.73796781964e-06
7.73796781963e-06
7.73796781964e-06
7.73796781965e-06
7.73796781965e-06
7.73796781965e-06
7.73796781966e-06
7.73796781965e-06
7.73796781965e-06
7.73796781965e-06
7.73796781966e-06
7.73796781967e-06
7.73796781966e-06
7.73796781966e-06
7.73796781965e-06
7.73796781965e-06
7.73796781966e-06
7.73796781965e-06
7.73796781964e-06
7.73796781964e-06
7.73796781964e-06
7.73796781964e-06
7.73796781965e-06
7.73796781966e-06
7.73796781965e-06
7.73796781965e-06
7.73796781965e-06
7.73796781965e-06
7.73796781966e-06
7.73796781966e-06
7.73796781968e-06
7.73796781967e-06
7.73796781966e-06
7.73796781966e-06
7.73796781966e-06
7.73796781964e-06
7.73796781964e-06
7.73796781965e-06
7.73796781965e-06
7.73796781966e-06
7.73796781967e-06
7.73796781966e-06
7.73796781966e-06
7.73796781965e-06
7.73796781967e-06
7.73796781967e-06
7.73796781967e-06
7.73796781966e-06
7.73796781966e-06
7.73796781966e-06
7.73796781965e-06
7.73796781966e-06
7.73796781967e-06
7.73796781965e-06
7.73796781964e-06
7.73796781964e-06
7.73796781964e-06
7.73796781964e-06
7.73796781964e-06
7.73796781965e-06
7.73796781963e-06
7.73796781963e-06
7.73796781965e-06
7.73796781966e-06
7.73796781968e-06
7.73796781967e-06
7.73796781966e-06
7.73796781965e-06
7.73796781964e-06
7.73796781965e-06
7.73796781965e-06
7.73796781965e-06
7.73796781965e-06
7.73796781966e-06
7.73796781964e-06
7.73796781964e-06
7.73796781963e-06
7.73796781964e-06
7.73796781965e-06
7.73796781965e-06
7.73796781965e-06
7.73796781967e-06
7.73796781965e-06
7.73796781965e-06
7.73796781964e-06
7.73796781965e-06
7.73796781966e-06
7.73796781966e-06
7.73796781966e-06
7.73796781965e-06
7.73796781965e-06
7.73796781966e-06
7.73796781965e-06
7.73796781965e-06
7.73796781964e-06
7.73796781964e-06
7.73796781964e-06
7.73796781965e-06
7.73796781966e-06
7.73796781965e-06
7.73796781965e-06
7.73796781966e-06
7.73796781966e-06
7.73796781966e-06
7.73796781966e-06
7.73796781968e-06
7.73796781967e-06
7.73796781967e-06
7.73796781965e-06
7.73796781965e-06
7.73796781964e-06
7.73796781964e-06
7.73796781965e-06
7.73796781965e-06
7.73796781966e-06
7.73796781966e-06
7.73796781966e-06
7.73796781966e-06
7.73796781966e-06
7.73796781967e-06
7.73796781967e-06
7.73796781967e-06
7.73796781966e-06
7.73796781966e-06
7.73796781966e-06
7.73796781965e-06
7.73796781966e-06
7.73796781967e-06
7.73796781965e-06
7.73796781964e-06
7.73796781964e-06
7.73796781964e-06
7.73796781964e-06
7.73796781965e-06
7.73796781965e-06
7.73796781964e-06
7.73796781963e-06
7.73796781965e-06
7.73796781966e-06
7.73796781967e-06
7.73796781967e-06
7.73796781966e-06
7.73796781965e-06
7.73796781965e-06
7.73796781965e-06
7.73796781965e-06
7.73796781965e-06
7.73796781965e-06
7.73796781966e-06
7.73796781964e-06
7.73796781964e-06
7.73796781963e-06
7.73796781964e-06
7.73796781965e-06
7.73796781965e-06
7.73796781965e-06
7.73796781966e-06
7.73796781965e-06
7.73796781965e-06
7.73796781965e-06
7.73796781965e-06
7.73796781966e-06
7.73796781966e-06
7.73796781966e-06
7.73796781965e-06
7.73796781965e-06
7.73796781965e-06
7.73796781965e-06
7.73796781965e-06
7.73796781964e-06
7.73796781965e-06
7.73796781965e-06
7.73796781965e-06
7.73796781965e-06
7.73796781965e-06
7.73796781964e-06
7.73796781966e-06
7.73796781966e-06
7.73796781966e-06
7.73796781966e-06
7.73796781968e-06
7.73796781967e-06
7.73796781966e-06
7.73796781965e-06
7.73796781965e-06
7.73796781965e-06
7.73796781964e-06
7.73796781965e-06
7.73796781965e-06
7.73796781966e-06
7.73796781966e-06
7.73796781966e-06
7.73796781967e-06
7.73796781966e-06
7.73796781967e-06
7.73796781967e-06
7.73796781968e-06
7.73796781967e-06
7.73796781966e-06
7.73796781967e-06
7.73796781966e-06
7.73796781966e-06
7.73796781966e-06
7.73796781965e-06
7.73796781964e-06
7.73796781964e-06
7.73796781964e-06
7.73796781965e-06
7.73796781964e-06
7.73796781965e-06
7.73796781964e-06
7.73796781963e-06
7.73796781965e-06
7.73796781966e-06
7.73796781967e-06
7.73796781967e-06
7.73796781966e-06
7.73796781965e-06
7.73796781964e-06
7.73796781965e-06
7.73796781965e-06
7.73796781965e-06
7.73796781965e-06
7.73796781966e-06
7.73796781964e-06
7.73796781964e-06
7.73796781963e-06
7.73796781964e-06
7.73796781965e-06
7.73796781965e-06
7.73796781965e-06
7.73796781966e-06
7.73796781965e-06
7.73796781965e-06
7.73796781964e-06
7.73796781964e-06
7.73796781964e-06
7.73796781965e-06
7.73796781966e-06
7.73796781966e-06
7.73796781965e-06
7.73796781966e-06
7.73796781965e-06
7.73796781964e-06
7.73796781964e-06
7.73796781965e-06
7.73796781965e-06
7.73796781965e-06
7.73796781965e-06
7.73796781964e-06
7.73796781965e-06
7.73796781965e-06
7.73796781966e-06
7.73796781966e-06
7.73796781966e-06
7.73796781967e-06
7.73796781967e-06
7.73796781967e-06
7.73796781966e-06
7.73796781966e-06
7.73796781966e-06
7.73796781965e-06
7.73796781964e-06
7.73796781965e-06
7.73796781966e-06
7.73796781966e-06
7.73796781966e-06
7.73796781966e-06
7.73796781966e-06
7.73796781967e-06
7.73796781967e-06
7.73796781967e-06
7.73796781967e-06
7.73796781965e-06
7.73796781966e-06
7.73796781965e-06
7.73796781966e-06
7.73796781966e-06
7.73796781965e-06
7.73796781964e-06
7.73796781964e-06
7.73796781963e-06
7.73796781965e-06
7.73796781964e-06
7.73796781965e-06
7.73796781964e-06
7.73796781963e-06
7.73796781965e-06
7.73796781966e-06
7.73796781967e-06
7.73796781967e-06
7.73796781967e-06
7.73796781965e-06
7.73796781964e-06
7.73796781966e-06
7.73796781965e-06
7.73796781965e-06
7.73796781964e-06
7.73796781965e-06
7.73796781964e-06
7.73796781964e-06
7.73796781963e-06
7.73796781963e-06
7.73796781965e-06
7.73796781965e-06
7.73796781965e-06
7.73796781966e-06
7.73796781965e-06
7.73796781965e-06
7.73796781965e-06
7.73796781964e-06
7.73796781963e-06
7.73796781963e-06
7.73796781965e-06
7.73796781966e-06
7.73796781965e-06
7.73796781965e-06
7.73796781965e-06
7.73796781964e-06
7.73796781963e-06
7.73796781965e-06
7.73796781966e-06
7.73796781964e-06
7.73796781965e-06
7.73796781965e-06
7.73796781965e-06
7.73796781965e-06
7.73796781966e-06
7.73796781966e-06
7.73796781966e-06
7.73796781966e-06
7.73796781967e-06
7.73796781967e-06
7.73796781966e-06
7.73796781967e-06
7.73796781966e-06
7.73796781965e-06
7.73796781964e-06
7.73796781965e-06
7.73796781966e-06
7.73796781965e-06
7.73796781966e-06
7.73796781966e-06
7.73796781966e-06
7.73796781967e-06
7.73796781967e-06
7.73796781967e-06
7.73796781968e-06
7.73796781966e-06
7.73796781966e-06
7.73796781965e-06
7.73796781966e-06
7.73796781967e-06
7.73796781965e-06
7.73796781964e-06
7.73796781964e-06
7.73796781964e-06
7.73796781965e-06
7.73796781964e-06
7.73796781965e-06
7.73796781965e-06
7.73796781963e-06
7.73796781965e-06
7.73796781966e-06
7.73796781967e-06
7.73796781966e-06
7.73796781967e-06
7.73796781966e-06
7.73796781964e-06
7.73796781966e-06
7.73796781965e-06
7.73796781964e-06
7.73796781964e-06
7.73796781965e-06
7.73796781963e-06
7.73796781965e-06
7.73796781963e-06
7.73796781964e-06
7.73796781965e-06
7.73796781965e-06
7.73796781965e-06
7.73796781967e-06
7.73796781964e-06
7.73796781965e-06
7.73796781965e-06
7.73796781965e-06
7.73796781963e-06
7.73796781963e-06
7.73796781965e-06
7.73796781966e-06
7.73796781965e-06
7.73796781965e-06
7.73796781966e-06
7.73796781966e-06
7.73796781964e-06
7.73796781965e-06
7.73796781966e-06
7.73796781965e-06
7.73796781964e-06
7.73796781964e-06
7.73796781964e-06
7.73796781964e-06
7.73796781966e-06
7.73796781966e-06
7.73796781966e-06
7.73796781966e-06
7.73796781965e-06
7.73796781966e-06
7.73796781966e-06
7.73796781967e-06
7.73796781968e-06
7.73796781966e-06
7.73796781964e-06
7.73796781965e-06
7.73796781966e-06
7.73796781966e-06
7.73796781967e-06
7.73796781967e-06
7.73796781966e-06
7.73796781966e-06
7.73796781967e-06
7.73796781967e-06
7.73796781968e-06
7.73796781966e-06
7.73796781966e-06
7.73796781965e-06
7.73796781965e-06
7.73796781967e-06
7.73796781965e-06
7.73796781964e-06
7.73796781964e-06
7.73796781964e-06
7.73796781965e-06
7.73796781965e-06
7.73796781965e-06
7.73796781964e-06
7.73796781963e-06
7.73796781965e-06
7.73796781966e-06
7.73796781967e-06
7.73796781966e-06
7.73796781967e-06
7.73796781966e-06
7.73796781964e-06
7.73796781966e-06
7.73796781965e-06
7.73796781963e-06
7.73796781962e-06
7.73796781966e-06
7.73796781964e-06
7.73796781965e-06
7.73796781964e-06
7.73796781964e-06
7.73796781965e-06
7.73796781965e-06
7.73796781966e-06
7.73796781967e-06
7.73796781964e-06
7.73796781965e-06
7.73796781965e-06
7.73796781965e-06
7.73796781964e-06
7.73796781964e-06
7.73796781965e-06
7.73796781966e-06
7.73796781965e-06
7.73796781965e-06
7.73796781965e-06
7.73796781966e-06
7.73796781964e-06
7.73796781965e-06
7.73796781966e-06
7.73796781965e-06
7.73796781965e-06
7.73796781964e-06
7.73796781964e-06
7.73796781965e-06
7.73796781966e-06
7.73796781967e-06
7.73796781966e-06
7.73796781966e-06
7.73796781965e-06
7.73796781967e-06
7.73796781967e-06
7.73796781967e-06
7.73796781968e-06
7.73796781967e-06
7.73796781965e-06
7.73796781965e-06
7.73796781964e-06
7.73796781966e-06
7.73796781966e-06
7.73796781968e-06
7.73796781966e-06
7.73796781967e-06
7.73796781967e-06
7.73796781966e-06
7.73796781968e-06
7.73796781967e-06
7.73796781967e-06
7.73796781965e-06
7.73796781965e-06
7.73796781967e-06
7.73796781965e-06
7.73796781964e-06
7.73796781964e-06
7.73796781965e-06
7.73796781965e-06
7.73796781965e-06
7.73796781966e-06
7.73796781964e-06
7.73796781963e-06
7.73796781964e-06
7.73796781965e-06
7.73796781967e-06
7.73796781966e-06
7.73796781966e-06
7.73796781966e-06
7.73796781965e-06
7.73796781967e-06
7.73796781965e-06
7.73796781963e-06
7.73796781963e-06
7.73796781966e-06
7.73796781965e-06
7.73796781965e-06
7.73796781964e-06
7.73796781964e-06
7.73796781966e-06
7.73796781965e-06
7.73796781965e-06
7.73796781967e-06
7.73796781964e-06
7.73796781965e-06
7.73796781964e-06
7.73796781966e-06
7.73796781965e-06
7.73796781965e-06
7.73796781965e-06
7.73796781965e-06
7.73796781965e-06
7.73796781964e-06
7.73796781964e-06
7.73796781965e-06
7.73796781965e-06
7.73796781966e-06
7.73796781967e-06
7.73796781966e-06
7.73796781964e-06
7.73796781964e-06
7.73796781964e-06
7.73796781964e-06
7.73796781966e-06
7.73796781966e-06
7.73796781966e-06
7.73796781966e-06
7.73796781965e-06
7.73796781966e-06
7.73796781966e-06
7.73796781967e-06
7.73796781967e-06
7.73796781967e-06
7.73796781966e-06
7.73796781965e-06
7.73796781965e-06
7.73796781966e-06
7.73796781967e-06
7.73796781967e-06
7.73796781966e-06
7.73796781966e-06
7.73796781966e-06
7.73796781965e-06
7.73796781967e-06
7.73796781967e-06
7.73796781967e-06
7.73796781965e-06
7.73796781964e-06
7.73796781967e-06