/*--------------------------------*- C++ -*----------------------------------*\
| =========                 |                                                 |
| \\      /  F ield         | OpenFOAM: The Open Source CFD Toolbox           |
|  \\    /   O peration     | Version:  v1706                                 |
|   \\  /    A nd           | Web:      www.OpenFOAM.com                      |
|    \\/     M anipulation  |                                                 |
\*---------------------------------------------------------------------------*/
FoamFile
{
    version     2.0;
    format      ascii;
    class       volScalarField;
    location    "0.014";
    object      O;
}
// * * * * * * * * * * * * * * * * * * * * * * * * * * * * * * * * * * * * * //

dimensions      [0 0 0 0 0 0 0];


internalField   nonuniform List<scalar> 
15860
(
4.82103867437e-23
2.93014320753e-22
1.79979179619e-21
2.05164319205e-20
1.2078472122e-19
7.96674402322e-19
5.49392770348e-18
3.92816316539e-17
2.8500737436e-16
2.06173065264e-15
1.48030000227e-14
1.06631837248e-13
7.79635613354e-13
5.81327900224e-12
4.41736858302e-11
3.42252579337e-10
2.70428396314e-09
2.1783667082e-08
1.78756335231e-07
1.49551487053e-06
2.38357920289e-05
0.0003490864538
0.00195422879838
0.00767237788148
0.0169047460013
0.0256018696998
0.0381715429144
0.0585036192782
0.0709181322926
0.0785904073639
0.0943967323323
0.10120743296
0.108108349857
0.118413777685
0.123229158711
0.127530730069
0.132692372842
0.136115914608
0.138417401313
0.140767418061
0.141076025784
0.140844715376
0.142875414114
0.154139472403
0.158634668504
0.161662532052
0.164722970051
0.166842634433
0.169031210869
0.171074117501
0.172996015478
0.174395031121
0.175543923873
0.176691101762
0.177805280527
0.178952762405
0.179828850953
0.18029042084
0.17965499316
0.178192325
0.178208600189
0.18587436648
0.186083452757
0.186850321408
0.187644184307
0.188663512572
0.189610893902
0.190065321008
0.190877509095
0.191174852284
0.191798886936
0.192011475182
0.192795105827
0.19308322368
0.190417078963
3.67412635446e-29
2.12577843906e-28
1.2508906758e-27
7.48725946505e-27
4.55927000815e-26
2.82491552138e-25
1.78124779938e-24
1.14320787736e-23
7.46936520868e-23
4.96910170513e-22
3.36657610456e-21
2.32326468635e-20
1.63340854403e-19
1.1702158835e-18
8.54485080819e-18
6.36071504159e-17
4.82802339495e-16
3.73762291785e-15
2.95181815097e-14
2.37885130615e-13
1.95662189484e-12
1.64019468896e-11
1.3884419123e-10
1.19868945475e-09
1.05709055496e-08
9.52581441046e-08
8.77564078257e-07
8.2676474924e-06
7.96225083263e-05
0.00128222766546
0.00678968350792
0.0195944622762
0.0265565326232
0.0327657478644
0.039066812836
0.0449824813341
0.0503663785728
0.0553400015178
0.0598964406522
0.0666477558449
0.0722131550949
0.0780453561149
0.0833389436644
0.100096222295
0.107351472816
0.113681513662
0.121951946942
0.127621608828
0.132526332164
0.136370642622
0.140196258603
0.143104366777
0.145521456107
0.147637848741
0.149811077838
0.151784128381
0.153469859805
0.155162428411
0.155666184628
0.154668038631
0.15343924804
0.163605873295
0.165112583198
0.166974035336
0.168876583967
0.17085298371
0.172573220666
0.173490616948
0.174776206964
0.175369045966
0.176313165161
0.1767224877
0.177703351289
0.178179309938
0.175730522238
2.08442085224e-42
1.14312568077e-41
6.37296481546e-41
3.61238859042e-40
2.08219470185e-39
1.22065500852e-38
7.27918023995e-38
4.41637280387e-37
2.72659856444e-36
1.71328754972e-35
1.09591595075e-34
7.13755764043e-34
4.73410720351e-33
3.19842859199e-32
2.20162238601e-31
1.54439250497e-30
1.10429729914e-29
8.05075201489e-29
5.98579257608e-28
4.54002845105e-27
3.51372836554e-26
2.77569372294e-25
2.23858088564e-24
1.84385495675e-23
1.5516120252e-22
1.3344176578e-21
1.17329663918e-20
1.05510577432e-19
9.7070541763e-19
9.10951595645e-18
8.62903344385e-17
8.35981043872e-16
8.29754172489e-15
8.4451178125e-14
8.81618061169e-13
9.44663382447e-12
1.03959808528e-10
1.17576837352e-09
1.36746356437e-08
1.63647495401e-07
2.01638845355e-06
2.55823040395e-05
0.000286262276639
0.00159007013492
0.00837889202563
0.0187955459756
0.0269110806744
0.0343138245933
0.0414578456827
0.0478366991938
0.0535300234992
0.0583954536414
0.0627322802975
0.0678093916128
0.0721332639486
0.0760260505545
0.0794002485307
0.0830494257124
0.0862306183804
0.0891417951823
0.089809862346
0.104327617791
0.109173100665
0.11333405586
0.118465322055
0.123248664667
0.12714051634
0.129621665207
0.132272983788
0.133909643684
0.135830904725
0.136970258148
0.138604428943
0.139614425002
0.13760679421
6.59548532641e-64
3.40808102502e-63
1.79016971972e-62
9.56021197969e-62
5.19158083284e-61
2.86722813875e-60
1.61075411039e-59
9.20612042727e-59
5.35405482755e-58
3.16904591812e-57
1.90940113609e-56
1.17131805576e-55
7.31729348849e-55
4.65603326594e-54
3.01833075692e-53
1.99389054561e-52
1.34252285057e-51
9.21581808937e-51
6.45130980345e-50
4.60657256228e-49
3.35616013524e-48
2.49554627421e-47
1.89441504657e-46
1.46860623028e-45
1.16304401545e-44
9.41224834435e-44
7.78662819688e-43
6.58754593614e-42
5.70141612825e-41
5.05003813041e-40
4.57942843459e-39
4.2535233288e-38
4.04874421951e-37
3.95129013146e-36
3.95574973135e-35
4.06468062322e-34
4.28924904016e-33
4.65111277867e-32
5.18599474158e-31
5.94979632627e-30
7.02878783811e-29
8.5558618294e-28
1.06960890301e-26
1.36250077447e-25
1.79085617944e-24
2.43133804753e-23
3.41514199187e-22
4.968216184e-21
7.49678774984e-20
1.17506625893e-18
1.91611272161e-17
3.25562171882e-16
5.77388560218e-15
1.07107116524e-13
2.08239877151e-12
4.2528839321e-11
9.08774286476e-10
1.9448323946e-08
4.1507384879e-07
8.85926106512e-06
0.00016541193125
0.00139088422727
0.0048243992366
0.0115101205257
0.0178154891632
0.0217678070861
0.0253076576353
0.0281466150801
0.0310090508134
0.0332358982365
0.0355704859196
0.0373190007911
0.039382448929
0.04078161748
0.0394340202485
2.12245446611e-132
1.020477051e-131
4.98598829786e-131
2.47600203987e-130
1.24989330929e-129
6.41489501515e-129
3.34792243906e-128
1.77708097062e-127
9.59542316333e-127
5.27142073488e-126
2.94701257514e-125
1.67692603662e-124
9.71433685759e-124
5.7302358292e-123
3.44261035431e-122
2.1069712889e-121
1.31397664225e-120
8.35182993174e-120
5.41191917279e-119
3.57611566098e-118
2.41035957755e-117
1.65762518811e-116
1.16346768321e-115
8.33720436447e-115
6.10133796263e-114
4.56157376232e-113
3.4853169653e-112
2.72249896562e-111
2.17499538642e-110
1.77782616179e-109
1.48745570157e-108
1.27442877097e-107
1.11868162639e-106
1.0065373226e-105
9.28773906866e-105
8.79393669135e-104
8.54868789157e-103
8.53733210616e-102
8.76457075814e-101
9.25594498906e-100
1.00625156485e-98
1.12699411357e-97
1.30140496731e-96
1.55072861008e-95
1.90861495795e-94
2.42882232668e-93
3.19917370728e-92
4.36663088608e-91
6.18389762234e-90
9.09848805192e-89
1.39283501299e-87
2.22198684335e-86
3.70036690836e-85
6.4451157708e-84
1.17652432285e-82
2.25601290513e-81
4.5536767266e-80
9.70019590337e-79
2.18773352978e-77
5.23783244909e-76
1.32856167132e-74
3.54141584596e-73
1.01597417277e-71
3.16706517424e-70
9.90394254874e-69
4.76382705441e-68
1.30396530219e-67
2.26536962309e-67
3.67962397079e-67
4.67863527793e-67
5.95703969804e-67
6.5357043266e-67
7.36868471147e-67
7.95164738515e-67
7.90728458236e-67
4.98036705539e-148
4.91368738741e-148
4.87740456526e-148
4.84089712991e-148
4.76743726437e-148
4.7171746705e-148
4.66989751357e-148
4.62750479778e-148
4.58607100383e-148
4.53419813862e-148
4.48086703385e-148
4.43138567994e-148
4.38824363429e-148
4.35078019266e-148
4.3093636047e-148
4.26890705471e-148
4.22901153602e-148
4.19206769582e-148
4.15401817356e-148
4.13217782014e-148
4.10031447375e-148
4.05068983503e-148
4.01409304723e-148
3.97039672096e-148
3.92674042028e-148
3.89280817876e-148
3.86704037027e-148
3.83115954002e-148
3.80251590536e-148
3.75690023387e-148
3.72268163879e-148
3.69548964561e-148
3.67294761562e-148
3.65179645832e-148
3.62225384604e-148
3.58464570812e-148
3.54992688849e-148
3.52459881592e-148
3.50803806325e-148
3.49567708119e-148
3.46679946003e-148
3.437687427e-148
3.41924586694e-148
3.39202143177e-148
3.37109835454e-148
3.35024109903e-148
3.32211111266e-148
3.30269328568e-148
3.2843985706e-148
3.26593699707e-148
3.24712569599e-148
3.22417924508e-148
3.21520106304e-148
3.2004537983e-148
3.17754316064e-148
3.15224871174e-148
3.15452354515e-148
3.14091754187e-148
3.13151625641e-148
3.13653346483e-148
3.14275362232e-148
3.25763237659e-148
3.34472126303e-148
3.48270326046e-148
3.58142387788e-148
3.64358655164e-148
3.69274449388e-148
3.7185532021e-148
3.75853819271e-148
3.78643120464e-148
3.79957861047e-148
3.81947143073e-148
3.85991453487e-148
3.86364158461e-148
3.84977710394e-148
4.86520831518e-148
4.79052389598e-148
4.75895125943e-148
4.73862501765e-148
4.65362686372e-148
4.60402476292e-148
4.55703713274e-148
4.51658536971e-148
4.48016598225e-148
4.4266627178e-148
4.37193174222e-148
4.31661837012e-148
4.27929846817e-148
4.23997896741e-148
4.2047357629e-148
4.16481101346e-148
4.12509727042e-148
4.08674709531e-148
4.05045232034e-148
4.03191031121e-148
4.00303997593e-148
3.95420365553e-148
3.92045113333e-148
3.87827081222e-148
3.83432181312e-148
3.79758376673e-148
3.77518431713e-148
3.74076171128e-148
3.71357853971e-148
3.66578616164e-148
3.63096095898e-148
3.60475269472e-148
3.58319668877e-148
3.5647665872e-148
3.53657106702e-148
3.49950029063e-148
3.46442326204e-148
3.43880555005e-148
3.42244609062e-148
3.41253112695e-148
3.38420942004e-148
3.35463180757e-148
3.33734891955e-148
3.30961655028e-148
3.28852804872e-148
3.26874363897e-148
3.24017511982e-148
3.22218153929e-148
3.2033191583e-148
3.18759393145e-148
3.16907106968e-148
3.14756274249e-148
3.13921915981e-148
3.12509946245e-148
3.10283628267e-148
3.07441058115e-148
3.07513865988e-148
3.05815522779e-148
3.04490445305e-148
3.04401697281e-148
3.02416549883e-148
3.02188827449e-148
3.00215868129e-148
3.00509087468e-148
2.99013964078e-148
2.98780521407e-148
2.97454541699e-148
2.96349422605e-148
2.96318924404e-148
2.9653115719e-148
2.94705426643e-148
2.94346295221e-148
2.95889717762e-148
2.94370308816e-148
2.94276827576e-148
4.74464352178e-148
4.65708477224e-148
4.62530556884e-148
4.54879586315e-148
4.53278180429e-148
4.48402160597e-148
4.43700120097e-148
4.39817003058e-148
4.36953560335e-148
4.31391968087e-148
4.26164057793e-148
4.19959848364e-148
4.16806521656e-148
4.12653657203e-148
4.09363767706e-148
4.05430139259e-148
4.0064398741e-148
3.97594090855e-148
3.92749981524e-148
3.92079185911e-148
3.89924924524e-148
3.85107577347e-148
3.82053840341e-148
3.78073335576e-148
3.73786725232e-148
3.69461597688e-148
3.67674856209e-148
3.64317713809e-148
3.61537405723e-148
3.57322404911e-148
3.53351940161e-148
3.50829357244e-148
3.48728105944e-148
3.47286316372e-148
3.44561894892e-148
3.40913178911e-148
3.37363769187e-148
3.34759395185e-148
3.3311357029e-148
3.32238253347e-148
3.29832867209e-148
3.26649487423e-148
3.25054602194e-148
3.22236088969e-148
3.20098092787e-148
3.18195636189e-148
3.15215824994e-148
3.1374773019e-148
3.11683562717e-148
3.10488731791e-148
3.08491549876e-148
3.06650922919e-148
3.05892748056e-148
3.04626716471e-148
3.02473792859e-148
2.99306541003e-148
2.99275425034e-148
2.97868364067e-148
2.96685004434e-148
2.96780540439e-148
2.94217461822e-148
2.94105247891e-148
2.92378807935e-148
2.92595188385e-148
2.91511730413e-148
2.90977309141e-148
2.88576644152e-148
2.88205670746e-148
2.87982853969e-148
2.88713488798e-148
2.8702240947e-148
2.86639087773e-148
2.87984972275e-148
2.86438841449e-148
2.86484262583e-148
4.61268074692e-148
4.52849071432e-148
4.49774733662e-148
4.45991762802e-148
4.40750504471e-148
4.35981635329e-148
4.31215597884e-148
4.27367277936e-148
4.23831019937e-148
4.19796813988e-148
4.15629319837e-148
4.09400489407e-148
4.05645180431e-148
4.01845755601e-148
3.97872952944e-148
3.94190187523e-148
3.86904653852e-148
3.86293837289e-148
3.82806700489e-148
3.80406670356e-148
3.75087678682e-148
3.74321757947e-148
3.7157534735e-148
3.67812525729e-148
3.63662112749e-148
3.5888814207e-148
3.57328445006e-148
3.53716919146e-148
3.5153632836e-148
3.47472309714e-148
3.43272162069e-148
3.40835907063e-148
3.38742488535e-148
3.38273016281e-148
3.35046777209e-148
3.31549726936e-148
3.27889055039e-148
3.25292685336e-148
3.23615359219e-148
3.22901405069e-148
3.20597931336e-148
3.17685097461e-148
3.16068130419e-148
3.13209237206e-148
3.11027138156e-148
3.09145476207e-148
3.05961142454e-148
3.04969679318e-148
3.02664441572e-148
3.01930904651e-148
2.99542160324e-148
2.98125261137e-148
2.9739108347e-148
2.96476035602e-148
2.94360722461e-148
2.9090535084e-148
2.90688894798e-148
2.89778957631e-148
2.88553183211e-148
2.88861460159e-148
2.85713844319e-148
2.85609945252e-148
2.84452739313e-148
2.84483115998e-148
2.8398439254e-148
2.82898448226e-148
2.79511582411e-148
2.79984518968e-148
2.79392807508e-148
2.80595687463e-148
2.79117654578e-148
2.78679923421e-148
2.79641428922e-148
2.7831795504e-148
2.78458865818e-148
4.47151893923e-148
4.39559364602e-148
4.35416114064e-148
4.28606489329e-148
4.27719843728e-148
4.23098956545e-148
4.17353694642e-148
4.108889481e-148
4.04522501175e-148
4.07473660513e-148
3.98995007739e-148
3.97252894787e-148
3.93630132468e-148
3.89947052206e-148
3.85932029455e-148
3.83219093861e-148
3.77266122611e-148
3.74150888285e-148
3.71339130176e-148
3.69149283783e-148
3.59802318863e-148
3.63009131622e-148
3.60143644948e-148
3.57188171829e-148
3.48027604887e-148
3.47800212179e-148
3.4069706675e-148
3.41634235274e-148
3.4037427592e-148
3.37438834942e-148
3.32849125376e-148
3.30477170696e-148
3.28285189918e-148
3.26397728182e-148
3.25328527746e-148
3.21830604226e-148
3.18161200083e-148
3.15440292278e-148
3.12099854069e-148
3.13229149935e-148
3.11298027119e-148
3.07996571569e-148
3.06744439829e-148
3.03773279548e-148
3.0161965463e-148
2.99817404031e-148
2.96349753949e-148
2.95668185406e-148
2.93312899707e-148
2.9313670514e-148
2.90219686612e-148
2.89087622549e-148
2.88180675237e-148
2.8794833626e-148
2.85774512363e-148
2.82207355077e-148
2.81769421681e-148
2.81594593591e-148
2.80016347397e-148
2.80602607691e-148
2.76919081076e-148
2.76541689525e-148
2.76291342268e-148
2.76386856071e-148
2.76316336145e-148
2.74462589168e-148
2.70659044415e-148
2.71641265359e-148
2.70599468988e-148
2.7234112254e-148
2.70877665449e-148
2.70248295595e-148
2.70792802886e-148
2.70017523223e-148
2.70114165593e-148
4.25858629256e-148
4.26325156964e-148
4.22520641696e-148
4.18693607895e-148
4.1408002469e-148
4.09947103914e-148
4.0530931044e-148
4.01139121619e-148
3.96372311717e-148
3.88182757567e-148
3.89576446489e-148
3.84770181281e-148
3.81000306415e-148
3.77084964162e-148
3.7375492196e-148
3.71579791101e-148
3.65060550612e-148
3.6191070886e-148
3.58900360635e-148
3.58521242888e-148
3.52615358264e-148
3.51202734511e-148
3.48360394967e-148
3.46587881216e-148
3.40824254529e-148
3.37372172458e-148
3.34349715226e-148
3.28575381233e-148
3.26393183129e-148
3.26882797567e-148
3.22010726104e-148
3.19747072516e-148
3.17444196794e-148
3.1205209932e-148
3.09602280117e-148
3.11674041615e-148
3.07939812416e-148
3.05362319088e-148
3.03036281517e-148
2.97565096465e-148
3.0159674265e-148
2.98127178881e-148
2.97015611996e-148
2.94106386485e-148
2.91838795227e-148
2.87697132312e-148
2.86585025744e-148
2.85402018256e-148
2.83653448169e-148
2.82963949926e-148
2.81406984851e-148
2.7939933681e-148
2.78277224734e-148
2.78897332152e-148
2.76624406128e-148
2.7312299071e-148
2.72687636513e-148
2.73208713982e-148
2.705681209e-148
2.71346893725e-148
2.6783499893e-148
2.66721487498e-148
2.67431233569e-148
2.68452031618e-148
2.68263044693e-148
2.65576865708e-148
2.62222377791e-148
2.63017828137e-148
2.61129101068e-148
2.64062300725e-148
2.6220395075e-148
2.61138528686e-148
2.61467622413e-148
2.61507690392e-148
2.61345347336e-148
4.16838817723e-148
4.11235677944e-148
4.07617778935e-148
4.04270387937e-148
3.99659905401e-148
3.95842001857e-148
3.91207891577e-148
3.87392378374e-148
3.83850739392e-148
3.80096388645e-148
3.76462992967e-148
3.71753346142e-148
3.67937440098e-148
3.63917385168e-148
3.60424306044e-148
3.52977921069e-148
3.52455897715e-148
3.49296185453e-148
3.45495987973e-148
3.37065100608e-148
3.40518490214e-148
3.38874825115e-148
3.35832070487e-148
3.34916157502e-148
3.29300631847e-148
3.25676264515e-148
3.23127618299e-148
3.20132690353e-148
3.1872096699e-148
3.16070298442e-148
3.10825438561e-148
3.08550017419e-148
3.06769662722e-148
3.05675620297e-148
3.03422583133e-148
3.01047039962e-148
2.97205937545e-148
2.94639466326e-148
2.92801929064e-148
2.91448917473e-148
2.91354127675e-148
2.87658634007e-148
2.83932921904e-148
2.83959437504e-148
2.81974112917e-148
2.75647694211e-148
2.76880862732e-148
2.72669424225e-148
2.73785135157e-148
2.70220200762e-148
2.68824807706e-148
2.66327141729e-148
2.68371869855e-148
2.69239018235e-148
2.64281959576e-148
2.63655941822e-148
2.59838014736e-148
2.64184693844e-148
2.61474156281e-148
2.62434169893e-148
2.58445700542e-148
2.56011939157e-148
2.57320349999e-148
2.59092077102e-148
2.59342982527e-148
2.56102620957e-148
2.48387676912e-148
2.5368656141e-148
2.49907971523e-148
2.49371774814e-148
2.53019058554e-148
2.49738889543e-148
2.51720213969e-148
2.52651890957e-148
2.51269907858e-148
3.92647204283e-148
3.95295428384e-148
3.91767528703e-148
3.89072434443e-148
3.84346962447e-148
3.80962445285e-148
3.7622022365e-148
3.72496433228e-148
3.69221254509e-148
3.65572108054e-148
3.55860558084e-148
3.57721845534e-148
3.5417528421e-148
3.50066705081e-148
3.47674131207e-148
3.45430397244e-148
3.39147259295e-148
3.36178809584e-148
3.27045195878e-148
3.25700167981e-148
3.26721297119e-148
3.25978204851e-148
3.22464966e-148
3.15361845705e-148
3.17616483797e-148
3.13220933838e-148
3.10622511034e-148
3.08078007509e-148
3.06837460824e-148
3.05486485058e-148
2.99160958012e-148
2.96672127131e-148
2.94788750314e-148
2.94145994256e-148
2.91915124613e-148
2.8984255205e-148
2.85862630152e-148
2.83222499219e-148
2.8133767832e-148
2.79899204752e-148
2.7482956218e-148
2.76972179743e-148
2.7568715133e-148
2.73193630689e-148
2.71941874423e-148
2.7003256996e-148
2.67242488e-148
2.65361783955e-148
2.63743037508e-148
2.62668434804e-148
2.61080723279e-148
2.59188789871e-148
2.58842903501e-148
2.59130499605e-148
2.56769156137e-148
2.539772852e-148
2.5473844799e-148
2.48379596395e-148
2.51331952192e-148
2.46829945931e-148
2.4853484937e-148
2.43341185424e-148
2.48574547258e-148
2.43697888945e-148
2.48726657512e-148
2.46020715138e-148
2.42941320999e-148
2.41997926536e-148
2.42548259497e-148
2.43380323478e-148
2.43226962624e-148
2.39855336771e-148
2.41309531189e-148
2.43165117839e-148
2.41372121754e-148
3.81222161303e-148
3.77753065208e-148
3.75468873327e-148
3.73041201897e-148
3.679889211e-148
3.65260280399e-148
3.60351693803e-148
3.56671583593e-148
3.53715848684e-148
3.52262415948e-148
3.4559699615e-148
3.41158093817e-148
3.39518991914e-148
3.35064976301e-148
3.32774066235e-148
3.31013047299e-148
3.25683880776e-148
3.15695601582e-148
3.19065865291e-148
3.15363603843e-148
3.12833965967e-148
3.12500754095e-148
3.09868746143e-148
3.07495144373e-148
2.97516853218e-148
3.00021735472e-148
2.97580837819e-148
2.94963676237e-148
2.93594715799e-148
2.93238174873e-148
2.86595576885e-148
2.84137964948e-148
2.82104392901e-148
2.7575959509e-148
2.72975792875e-148
2.77994123729e-148
2.73850729091e-148
2.64624942687e-148
2.69171755858e-148
2.68390059205e-148
2.68231161186e-148
2.65300412665e-148
2.64282079291e-148
2.61689743068e-148
2.60632009226e-148
2.5239990493e-148
2.56261084767e-148
2.54281886274e-148
2.52767949056e-148
2.51270456545e-148
2.4459697419e-148
2.47260286008e-148
2.47809929323e-148
2.48155522652e-148
2.46145474168e-148
2.43271345493e-148
2.38468013839e-148
2.42365151071e-148
2.40776190735e-148
2.4070671791e-148
2.37665509242e-148
2.36059591702e-148
2.38373987395e-148
2.33209834301e-148
2.36745017319e-148
2.35083185116e-148
2.33401293756e-148
2.32052257783e-148
2.3259718743e-148
2.32845180128e-148
2.32806285487e-148
2.3207370675e-148
2.27826124619e-148
2.32825282812e-148
2.30030360293e-148
3.63071426294e-148
3.59287717561e-148
3.56943824903e-148
3.56412930765e-148
3.50300449232e-148
3.48597450499e-148
3.43216855938e-148
3.39270202232e-148
3.36405437403e-148
3.36985299425e-148
3.29774885353e-148
3.26240538759e-148
3.23396704213e-148
3.1955615684e-148
3.14474022501e-148
3.16202116037e-148
3.12450983168e-148
3.06616071245e-148
3.04376465974e-148
3.02314210097e-148
2.98648008728e-148
2.97544884301e-148
2.95570783806e-148
2.95006682228e-148
2.89145812452e-148
2.85865702878e-148
2.83583480836e-148
2.80721311029e-148
2.7907253515e-148
2.73131866993e-148
2.73162232957e-148
2.70788381443e-148
2.69748024222e-148
2.68652657132e-148
2.65152638785e-148
2.6504073906e-148
2.62545595261e-148
2.57023225414e-148
2.49743994051e-148
2.48232138986e-148
2.55908138338e-148
2.52790914002e-148
2.52114613212e-148
2.49360241129e-148
2.49283964334e-148
2.45304732877e-148
2.44929944255e-148
2.42378452964e-148
2.40937863769e-148
2.40533034138e-148
2.38021026261e-148
2.36206967498e-148
2.36152488451e-148
2.30558365616e-148
2.3477302317e-148
2.32101876614e-148
2.31666709039e-148
2.30988729895e-148
2.29206080423e-148
2.2906833914e-148
2.24446141926e-148
2.2583659654e-148
2.26994501902e-148
2.25844018043e-148
2.25639779174e-148
2.23454528212e-148
2.23297525408e-148
2.24245716242e-148
2.21987431e-148
2.21680667791e-148
2.21831418249e-148
2.21406954106e-148
2.1913722024e-148
2.21506029327e-148
2.18216817037e-148
3.43683270347e-148
3.3946910493e-148
3.36566504197e-148
3.38615425291e-148
3.30868729214e-148
3.20016901111e-148
3.25225287356e-148
3.21817433348e-148
3.17003317057e-148
3.09183269808e-148
3.13469513391e-148
3.08992042621e-148
3.06430472241e-148
3.0316434445e-148
2.98104913452e-148
2.90807790029e-148
2.96227913382e-148
2.90676285732e-148
2.8793894508e-148
2.8615415082e-148
2.8262928802e-148
2.81571089993e-148
2.79362141202e-148
2.7111485261e-148
2.7460943651e-148
2.70774630183e-148
2.68563045487e-148
2.65473398299e-148
2.64939502315e-148
2.64872881492e-148
2.58640401504e-148
2.56170946912e-148
2.53275540922e-148
2.54814181352e-148
2.50635405094e-148
2.51029152613e-148
2.49364193064e-148
2.44140166698e-148
2.42090090755e-148
2.39779270269e-148
2.42647492112e-148
2.39238431079e-148
2.390120561e-148
2.35919430985e-148
2.29729851774e-148
2.32138565281e-148
2.28851009056e-148
2.29530515688e-148
2.28032106392e-148
2.27972318786e-148
2.25468757115e-148
2.234760725e-148
2.2286088794e-148
2.23399817548e-148
2.22480841106e-148
2.19682094195e-148
2.1918727039e-148
2.12470045684e-148
2.16757927737e-148
2.0929564457e-148
2.16391040795e-148
2.13814820314e-148
2.13244626651e-148
2.0907124494e-148
2.12836172659e-148
2.11167698879e-148
2.11761004872e-148
2.13113400489e-148
2.10468333677e-148
2.0956754731e-148
2.11228583501e-148
2.10030269276e-148
2.07411901323e-148
2.09173745504e-148
2.06706776212e-148
3.22713770135e-148
3.18103403169e-148
3.13118796549e-148
3.07321908517e-148
3.13805601703e-148
3.0683827677e-148
3.04886318878e-148
3.0326415605e-148
2.99300070831e-148
2.96797846042e-148
2.94143462242e-148
2.90425640525e-148
2.87671067004e-148
2.85258938377e-148
2.81191621467e-148
2.78328899085e-148
2.79077689501e-148
2.72744108936e-148
2.69873064307e-148
2.68842815979e-148
2.64690436536e-148
2.64171574098e-148
2.63972035806e-148
2.6075368891e-148
2.58184784966e-148
2.54019639474e-148
2.52218539692e-148
2.48552436988e-148
2.48068559867e-148
2.43960813758e-148
2.4330687557e-148
2.40572245791e-148
2.38734373653e-148
2.33425954313e-148
2.34622256024e-148
2.35596559911e-148
2.34483674457e-148
2.29336177068e-148
2.27089431273e-148
2.23892941502e-148
2.16907455688e-148
2.24300882512e-148
2.24703172686e-148
2.22223399171e-148
2.21432632729e-148
2.17979958884e-148
2.166938749e-148
2.15445741908e-148
2.13829178134e-148
2.14192189374e-148
2.11714937543e-148
2.09546515005e-148
2.06285694696e-148
2.06700322308e-148
2.09022365353e-148
2.06026942061e-148
1.99009617719e-148
2.04744004576e-148
1.99815252598e-148
1.99850244569e-148
2.03681176315e-148
2.00679620094e-148
1.91448923115e-148
2.02398292011e-148
1.90869908896e-148
1.97739783005e-148
1.97457338036e-148
2.00623330503e-148
1.97716727605e-148
1.97465693804e-148
1.9573968615e-148
1.9760071807e-148
1.94777364918e-148
1.95688183731e-148
1.93379216313e-148
2.99553773798e-148
2.95393253785e-148
2.91077238832e-148
2.91686371554e-148
2.79184558596e-148
2.83724779544e-148
2.81925821378e-148
2.81561155011e-148
2.77096517017e-148
2.74907129799e-148
2.72144425425e-148
2.69888261903e-148
2.66382560729e-148
2.64882528754e-148
2.6053845056e-148
2.56467344961e-148
2.48062102557e-148
2.52761721792e-148
2.49416061537e-148
2.43291785939e-148
2.44462712423e-148
2.44034715748e-148
2.45055597735e-148
2.41800453872e-148
2.39603570797e-148
2.35484641533e-148
2.31244708187e-148
2.29615245214e-148
2.20872096367e-148
2.1967124133e-148
2.2556981567e-148
2.2276910101e-148
2.22049952804e-148
2.2164918965e-148
2.16469331686e-148
2.09407724001e-148
2.08891709844e-148
2.12533071622e-148
2.10662634978e-148
2.08407651376e-148
2.01037739508e-148
2.07449772291e-148
2.08556512281e-148
2.05882947393e-148
2.05719708815e-148
2.0193293658e-148
2.00755564945e-148
1.996655889e-148
1.97842849732e-148
1.98742042566e-148
1.96321112802e-148
1.94336592015e-148
1.93800853441e-148
1.85179340486e-148
1.9397586708e-148
1.91483304351e-148
1.90104732966e-148
1.90065669163e-148
1.88751942861e-148
1.88565612324e-148
1.89372433958e-148
1.86681476497e-148
1.82958139383e-148
1.80360363772e-148
1.82082371014e-148
1.78586542291e-148
1.84913735229e-148
1.85967913003e-148
1.83220334817e-148
1.83550582288e-148
1.83040635128e-148
1.83340668159e-148
1.80749549941e-148
1.8072476035e-148
1.8096666137e-148
2.7257297034e-148
2.68802619114e-148
2.61844512701e-148
2.54420332272e-148
2.61864785467e-148
2.56956882378e-148
2.54613291357e-148
2.56810622502e-148
2.51323022136e-148
2.49710054031e-148
2.46956740503e-148
2.45594919784e-148
2.41367438575e-148
2.41495855916e-148
2.37264589511e-148
2.35412221086e-148
2.32544284616e-148
2.29868642403e-148
2.2794715662e-148
2.25315275287e-148
2.21052305175e-148
2.20275479099e-148
2.09279467763e-148
2.19732535841e-148
2.17685788321e-148
2.15309539436e-148
2.1233468779e-148
2.10561792163e-148
2.08654282284e-148
2.06576821424e-148
2.04857804837e-148
2.01972987101e-148
2.01190808717e-148
2.0238348623e-148
1.97883766358e-148
1.97805144707e-148
1.96884193435e-148
1.93056176143e-148
1.91566488277e-148
1.90759318508e-148
1.88331722865e-148
1.87764924679e-148
1.89884879421e-148
1.86825890216e-148
1.87578118707e-148
1.83399704132e-148
1.82232147813e-148
1.81366721308e-148
1.79198370481e-148
1.71218762849e-148
1.78425383346e-148
1.76289680759e-148
1.77048240111e-148
1.74426665122e-148
1.67228246769e-148
1.74033094717e-148
1.72464204126e-148
1.7265401325e-148
1.71328007125e-148
1.71461658708e-148
1.67210702161e-148
1.6953279422e-148
1.68540440864e-148
1.68252098375e-148
1.65989329099e-148
1.68196711887e-148
1.68150069897e-148
1.67398285441e-148
1.66471426154e-148
1.66956000636e-148
1.6588066139e-148
1.66198081838e-148
1.64507247454e-148
1.63591736762e-148
1.64652467403e-148
2.42266677472e-148
2.40975603409e-148
2.3461965658e-148
2.29195164665e-148
2.26164528715e-148
2.27351524472e-148
2.22529777003e-148
2.15209696778e-148
2.22275289612e-148
2.20979366289e-148
2.19038945908e-148
2.18904581448e-148
2.12597050071e-148
2.15349261115e-148
2.10149777618e-148
2.09097267786e-148
2.07135641375e-148
2.03611946207e-148
2.02296300779e-148
2.00288551228e-148
1.95476853011e-148
1.86270981598e-148
1.91297393838e-148
1.95011015686e-148
1.93310098152e-148
1.91375495208e-148
1.8813527355e-148
1.86638325355e-148
1.849553431e-148
1.82888780456e-148
1.81805198883e-148
1.78578525685e-148
1.77339381767e-148
1.80614765855e-148
1.74877498608e-148
1.65672711564e-148
1.64666952501e-148
1.7116652159e-148
1.69824629977e-148
1.69710552415e-148
1.66559691857e-148
1.65468659608e-148
1.69060674516e-148
1.65284025257e-148
1.67265914209e-148
1.62539389566e-148
1.61416529088e-148
1.60880982944e-148
1.60057758995e-148
1.58739977568e-148
1.58384854167e-148
1.55826077643e-148
1.47966573204e-148
1.55480349802e-148
1.55270456138e-148
1.54419178621e-148
1.52681387419e-148
1.53182763717e-148
1.51914338585e-148
1.53186216164e-148
1.50525706321e-148
1.48468996354e-148
1.49668804197e-148
1.47395009612e-148
1.4868073841e-148
1.49321473589e-148
1.47290020813e-148
1.41654729827e-148
1.47519937559e-148
1.46168200858e-148
1.47177026204e-148
1.46720299206e-148
1.46227013772e-148
1.44688343815e-148
1.46038909636e-148
2.09696123385e-148
2.12222207959e-148
2.05540494308e-148
2.03147283367e-148
2.0069838339e-148
1.98334731985e-148
1.96026005255e-148
1.940288437e-148
1.92493038434e-148
1.91889893496e-148
1.89218618997e-148
1.79569949261e-148
1.81834601337e-148
1.75031190187e-148
1.82066226626e-148
1.81785319007e-148
1.80877446728e-148
1.76520781679e-148
1.75812957973e-148
1.75391298568e-148
1.72823981342e-148
1.69957168214e-148
1.6456279314e-148
1.56268169339e-148
1.68217991983e-148
1.67019154224e-148
1.63301010198e-148
1.62126297779e-148
1.6073767599e-148
1.58384269032e-148
1.58235069624e-148
1.54836451756e-148
1.52261112335e-148
1.47497233388e-148
1.54309488416e-148
1.5208749296e-148
1.50120715408e-148
1.48644319961e-148
1.47207122564e-148
1.48189051756e-148
1.44426195566e-148
1.42265152299e-148
1.37890968533e-148
1.42893366349e-148
1.4168726853e-148
1.41174381289e-148
1.40028066217e-148
1.38332150529e-148
1.39119067386e-148
1.37769890334e-148
1.37936325241e-148
1.3639091299e-148
1.35215092743e-148
1.34957243716e-148
1.34897394387e-148
1.34409628179e-148
1.32384484856e-148
1.33246695566e-148
1.31920142403e-148
1.34220898765e-148
1.3146885723e-148
1.25993146087e-148
1.28171738908e-148
1.29467628568e-148
1.29046975422e-148
1.28092888671e-148
1.25299842672e-148
1.2630169665e-148
1.2806048486e-148
1.23694921768e-148
1.27828522661e-148
1.26738217078e-148
1.27653481252e-148
1.25671066835e-148
1.26518975067e-148
1.73854141709e-148
1.66693229557e-148
1.73855106802e-148
1.71841213726e-148
1.69673662887e-148
1.67608241663e-148