/*--------------------------------*- C++ -*----------------------------------*\
| =========                 |                                                 |
| \\      /  F ield         | OpenFOAM: The Open Source CFD Toolbox           |
|  \\    /   O peration     | Version:  v1706                                 |
|   \\  /    A nd           | Web:      www.OpenFOAM.com                      |
|    \\/     M anipulation  |                                                 |
\*---------------------------------------------------------------------------*/
FoamFile
{
    version     2.0;
    format      ascii;
    class       volScalarField;
    location    "0.014";
    object      O2;
}
// * * * * * * * * * * * * * * * * * * * * * * * * * * * * * * * * * * * * * //

dimensions      [0 0 0 0 0 0 0];


internalField   nonuniform List<scalar> 
15860
(
6.65531080831e-24
4.04405770315e-23
2.4834181275e-22
2.83018021299e-21
1.6657129779e-20
1.09836032348e-19
7.57222237557e-19
5.41271960615e-18
3.92623889926e-17
2.8395470292e-16
2.03825779656e-15
1.46786134561e-14
1.07294719037e-13
7.99828836188e-13
6.07616141363e-12
4.70655268685e-11
3.71792096507e-10
2.99414053556e-09
2.45639463179e-08
2.05459202056e-07
3.2738571145e-06
4.79353574993e-05
0.000268067727109
0.00100422241558
0.00221965462853
0.00331924811559
0.00496172410213
0.00762858297134
0.009368054187
0.0105480280569
0.0126338915873
0.0134814780186
0.014199133939
0.015786022492
0.0164370750737
0.017028746319
0.0177463690403
0.0183126344473
0.0187851465163
0.0193746326243
0.019832580792
0.0203331949573
0.0211149284739
0.0225883094594
0.0231220391238
0.0235892364283
0.0240114095375
0.0243510950055
0.0246511045576
0.0248992789711
0.0251549046153
0.0253654315861
0.0255609483798
0.0257822369274
0.0260244361729
0.0263026255241
0.0265379584523
0.0267463520797
0.0269270828917
0.0271388585336
0.0276649090232
0.0289132962975
0.0288940995288
0.0289508881544
0.0290998301225
0.029167533866
0.029294120812
0.0293592409461
0.0294490717945
0.0295073632611
0.0295850333543
0.0296455598373
0.0297484987428
0.0297425136533
0.0294302114738
3.89280162567e-30
2.25226761123e-29
1.3252956281e-28
7.93241426743e-28
4.83019488866e-27
2.99267431364e-26
1.88695204751e-25
1.21099463493e-24
7.91187159264e-24
5.26320242032e-23
3.5656236495e-22
2.46047507824e-21
1.7297636825e-20
1.23916233042e-19
9.04764793486e-19
6.73449480684e-18
5.11134687359e-17
3.95664934549e-16
3.12454727403e-15
2.51784906098e-14
2.07077922907e-13
1.73574733048e-12
1.46920646098e-11
1.26831026385e-10
1.11839334693e-09
1.0077389606e-08
9.28300104762e-08
8.74490870438e-07
8.42118374448e-06
0.000135601583577
0.000717907279897
0.00200932039181
0.00281827615135
0.00358337643015
0.00435414064977
0.00507399623473
0.00573291152841
0.00635637807981
0.00697137187743
0.00799740999526
0.00891629150531
0.00999327036252
0.0111475063357
0.0133733531168
0.0142264054422
0.0149260381846
0.0157641913342
0.0164110761479
0.0169991313571
0.0174768347003
0.0179435225876
0.0183367247869
0.018696232785
0.0190128778028
0.0193668027433
0.0197159735182
0.020034665166
0.020361214158
0.020629200836
0.0208481701525
0.0212238391451
0.0226572210605
0.022908628571
0.023152372605
0.0234022429241
0.0235260817519
0.0237164864629
0.0238356761878
0.0239772975151
0.0240712762946
0.0241861701867
0.0242666710516
0.0243905880517
0.0244363742592
0.0241798007148
1.5664217743e-43
8.58367764652e-43
4.78186977057e-42
2.70862315448e-41
1.56025204936e-40
9.141285219e-40
5.44827963523e-39
3.30390036027e-38
2.03886439051e-37
1.28063333587e-36
8.18880392036e-36
5.33166139703e-35
3.53542375568e-34
2.38809142545e-33
1.64356982766e-32
1.15279973164e-31
8.24237826329e-31
6.00886581062e-30
4.46772150473e-29
3.38883088341e-28
2.62303792439e-27
2.07238669972e-26
1.67167681777e-25
1.37722067795e-24
1.15924079122e-23
9.97268208932e-23
8.77148290975e-22
7.89079632758e-21
7.26249439541e-20
6.81836460587e-19
6.46168795162e-18
6.26313385472e-17
6.21967191516e-16
6.33368394488e-15
6.61565237526e-14
7.09281723351e-13
7.81022870476e-12
8.83858914724e-11
1.02859735779e-09
1.23172117557e-08
1.51864082657e-07
1.92797903951e-06
2.1587896507e-05
0.000119971565909
0.000754132851215
0.00184898884347
0.00280344537329
0.00368952377838
0.00454580317948
0.00530331474415
0.00597090432823
0.00654601117047
0.00708779323346
0.00779906015159
0.00839846641497
0.00895293049315
0.0094535356628
0.00999144596714
0.0104889855507
0.0110084317864
0.01142659028
0.0133886366221
0.0139934881684
0.0144641296019
0.014968033876
0.0153941274435
0.0157683438292
0.0160250859609
0.0162973477347
0.0164834984535
0.0166932114524
0.0168339324549
0.0170208712737
0.0171327586569
0.0169220005472
3.20834055184e-65
1.65782422254e-64
8.70800707978e-64
4.6503877111e-63
2.52533710573e-62
1.39470085186e-61
7.83516363024e-61
4.47812658342e-60
2.60437945782e-59
1.54153188235e-58
9.28804790682e-58
5.69778578132e-57
3.55947905204e-56
2.26494348046e-55
1.46829747661e-54
9.69962688554e-54
6.5310410974e-53
4.48334464776e-52
3.13851406791e-51
2.24110630637e-50
1.6328111114e-49
1.21413775906e-48
9.21694159804e-48
7.14540238325e-47
5.65883879567e-46
4.5796742171e-45
3.78879262539e-44
3.20542311771e-43
2.77430910576e-42
2.45740773664e-41
2.22845733947e-40
2.06991423535e-39
1.97030894925e-38
1.92292927907e-37
1.92514535363e-36
1.9782053445e-35
2.08754723029e-34
2.26371568107e-33
2.52410188942e-32
2.89591980732e-31
3.42116715566e-30
4.16453809303e-29
5.20639455471e-28
6.6321996456e-27
8.717462867e-26
1.18354033827e-24
1.66247278794e-23
2.41854431428e-22
3.64952441137e-21
5.72045544885e-20
9.32816439289e-19
1.58495028093e-17
2.8109694631e-16
5.21449432306e-15
1.01382584132e-13
2.07056199882e-12
4.42451479837e-11
9.46883444033e-10
2.02089734376e-08
4.31311300642e-07
8.04665301326e-06
6.70335894902e-05
0.00029379446975
0.000895330464082
0.00156128442413
0.00200695505606
0.00241985445059
0.00275966956307
0.00310148231065
0.00337066999215
0.00365162658229
0.00386211240201
0.00411064042028
0.00427909662536
0.00411693958952
3.50464301438e-164
1.68504909987e-163
8.23312043457e-163
4.0885385788e-162
2.06392510034e-161
1.05928893028e-160
5.5284599364e-160
2.93453910495e-159
1.58453097306e-158
8.70498861615e-158
4.86660898243e-157
2.76925100147e-156
1.60422594223e-155
9.4630001877e-155
5.68523232774e-154
3.47954915429e-153
2.16998152793e-152
1.37928524922e-151
8.93774245377e-151
5.90598318141e-150
3.98076584905e-149
2.73763357536e-148
1.92153158596e-147
1.37694918009e-146
1.00768976799e-145
7.53391666786e-145
5.7564239875e-144
4.4965832651e-143
3.59234232229e-142
2.93638608925e-141
2.45681482018e-140
2.10498249182e-139
1.8477532605e-138
1.66253926955e-137
1.53411030683e-136
1.45256125596e-135
1.41206633188e-134
1.41020514027e-133
1.44775543447e-132
1.5289373682e-131
1.66218672451e-130
1.86165465074e-129
2.14978027436e-128
2.56165980914e-127
3.15288339622e-126
4.01226069814e-125
5.28487719461e-124
7.21351770074e-123
1.02156570129e-121
1.5030605509e-120
2.30096489092e-119
3.6707490454e-118
6.11308891415e-117
1.06475372941e-115
1.94366620392e-114
3.72704362052e-113
7.52292972751e-112
1.60253311253e-110
3.6142850962e-109
8.65328159803e-108
2.19488602679e-106
5.85070181182e-105
1.67847255834e-103
5.23128245414e-102
1.65286413705e-100
1.02430401789e-99
3.07639262708e-99
5.156088314e-99
7.962996045e-99
9.08151285209e-99
1.04651635774e-98
1.01155625744e-98
1.01005102201e-98
1.00500031279e-98
1.10512527802e-98
2.05680612091e-214
2.00255750309e-214
1.97275358033e-214
1.94285325507e-214
1.88539803434e-214
1.84574712529e-214
1.80880659442e-214
1.77600810214e-214
1.74451014944e-214
1.70605397865e-214
1.66682318974e-214
1.63059689808e-214
1.59938827284e-214
1.57213340654e-214
1.54210514637e-214
1.51303320494e-214
1.48475185421e-214
1.45873066715e-214
1.43185416895e-214
1.41691057378e-214
1.39580328864e-214
1.36395978881e-214
1.33968317549e-214
1.3111357756e-214
1.28333314053e-214
1.26166066209e-214
1.24443394596e-214
1.22129049012e-214
1.20310613345e-214
1.17486312923e-214
1.15356513294e-214
1.1359693821e-214
1.12151688767e-214
1.10859309623e-214
1.09170276202e-214
1.06992285037e-214
1.04920667706e-214
1.0334984403e-214
1.02283797897e-214
1.01532032254e-214
9.99980620816e-215
9.84826321594e-215
9.74792583219e-215
9.60474023317e-215
9.49066748809e-215
9.3765812516e-215
9.22166422043e-215
9.11049982738e-215
9.00553060982e-215
8.89888519782e-215
8.7940499428e-215
8.66833851581e-215
8.61603818534e-215
8.53802938239e-215
8.42388164397e-215
8.29357731502e-215
8.28727938602e-215
8.19592010044e-215
8.12401783228e-215
8.1108337349e-215
8.06863834565e-215
8.13599412443e-215
8.09197809919e-215
8.15879326658e-215
8.10968125162e-215
8.12984105339e-215
8.13923520277e-215
8.06955203116e-215
8.07232376921e-215
8.05961269145e-215
7.97464461481e-215
7.96420608312e-215
8.03819518372e-215
7.95040941478e-215
7.95227700676e-215
1.96632595567e-214
1.90691265835e-214
1.88155698161e-214
1.86461849006e-214
1.79979655515e-214
1.76153819095e-214
1.72561731232e-214
1.69489819093e-214
1.66764472641e-214
1.62892114922e-214
1.58962986431e-214
1.55019710584e-214
1.52386095531e-214
1.4958749403e-214
1.47082315846e-214
1.44274601451e-214
1.41524831766e-214
1.38898790523e-214
1.36365742804e-214
1.35124736313e-214
1.33253154428e-214
1.30211920788e-214
1.28021502242e-214
1.25318946909e-214
1.22582067963e-214
1.20305283755e-214
1.18816967384e-214
1.16636015086e-214
1.14947075036e-214
1.12059683501e-214
1.09955558053e-214
1.08292077828e-214
1.06931017218e-214
1.05816823429e-214
1.04250225872e-214
1.02163869687e-214
1.00124286726e-214
9.8571640727e-215
9.75306845528e-215
9.69157830687e-215
9.54463266104e-215
9.39521173151e-215
9.30341207783e-215
9.16217121109e-215
9.05041508691e-215
8.94569633525e-215
8.7932639479e-215
8.69106971033e-215
8.5861821154e-215
8.49571141012e-215
8.39557606834e-215
8.2795704997e-215
8.23079955118e-215
8.15723879851e-215
8.04998382685e-215
7.90804008498e-215
7.89926539612e-215
7.8122195418e-215
7.74540832275e-215
7.73092841771e-215
7.64599114727e-215
7.62662168199e-215
7.5251531712e-215
7.53725611293e-215
7.45684123331e-215
7.45992060944e-215
7.41679804952e-215
7.36043463946e-215
7.35962688984e-215
7.36524396874e-215
7.27542127248e-215
7.25716602985e-215
7.33162427595e-215
7.23202595227e-215
7.24293430311e-215
1.87380616422e-214
1.80574423974e-214
1.78104955113e-214
1.72247634261e-214
1.71106896699e-214
1.67439115919e-214
1.639319037e-214
1.61043089066e-214
1.58925212397e-214
1.54998411509e-214
1.51339286023e-214
1.47035554054e-214
1.44873359742e-214
1.4197615132e-214
1.39697377991e-214
1.36992699746e-214
1.33781109198e-214
1.31736629968e-214
1.28503700555e-214
1.28025354639e-214
1.26672811489e-214
1.2375942908e-214
1.21826950079e-214
1.19329499901e-214
1.167235475e-214
1.14119526249e-214
1.12929595624e-214
1.10853645199e-214
1.09156689252e-214
1.06684994206e-214
1.04358464649e-214
1.02791872066e-214
1.01487718172e-214
1.00613236469e-214
9.91497232209e-215
9.71606541358e-215
9.5155188959e-215
9.36175095483e-215
9.25862301865e-215
9.20346308576e-215
9.08210848545e-215
8.9260058663e-215
8.84309480901e-215
8.70384117944e-215
8.59339648896e-215
8.49594389898e-215
8.3421349219e-215
8.25814713988e-215
8.14725500617e-215
8.07770081467e-215
7.97381630373e-215
7.87611568785e-215
7.83136130744e-215
7.76601024699e-215
7.66620053415e-215
7.51251917195e-215
7.49768572242e-215
7.42685594743e-215
7.36965819336e-215
7.36324950901e-215
7.25311236037e-215
7.23976943441e-215
7.15090925417e-215
7.16116564402e-215
7.10028894757e-215
7.09173032628e-215
6.9988897285e-215
6.97748682769e-215
6.96978941714e-215
7.00048612052e-215
6.91793381968e-215
6.89742296498e-215
6.96597643785e-215
6.86253750521e-215
6.88218605917e-215
1.77482078712e-214
1.7112602207e-214
1.68789860819e-214
1.65956606567e-214
1.62147848563e-214
1.58657036778e-214
1.55197629562e-214
1.52397910206e-214
1.49863698181e-214
1.47088761749e-214
1.44255647945e-214
1.40089494968e-214
1.37548988869e-214
1.3496499982e-214
1.32264373183e-214
1.29786193935e-214
1.25084650809e-214
1.24639065007e-214
1.22351643045e-214
1.207730146e-214
1.17513970093e-214
1.17185060977e-214
1.15496292126e-214
1.13188961494e-214
1.10736399739e-214
1.07940106413e-214
1.06902949128e-214
1.04744110078e-214
1.03419118245e-214
1.01098882895e-214
9.87246803896e-215
9.72473381152e-215
9.59721421945e-215
9.5633555504e-215
9.39496248569e-215
9.21099304933e-215
9.01058206514e-215
8.86141261513e-215
8.75825556344e-215
8.71103297256e-215
8.59818431724e-215
8.46087798114e-215
8.37881934566e-215
8.24214778369e-215
8.13235938565e-215
8.03904296407e-215
7.87993282535e-215
7.82136517482e-215
7.70123666675e-215
7.6559421114e-215
7.53641620477e-215
7.46285802988e-215
7.41981125883e-215
7.37209374873e-215
7.27793805953e-215
7.11523588391e-215
7.09019222871e-215
7.04466280061e-215
6.988618167e-215
6.99088687965e-215
6.85568450975e-215
6.84319604484e-215
6.78179590069e-215
6.7839270538e-215
6.75079318249e-215
6.71897766126e-215
6.58037468664e-215
6.59906933407e-215
6.57608032872e-215
6.62926766224e-215
6.5580575199e-215
6.53440564351e-215
6.58789275462e-215
6.49264730495e-215
6.51905058833e-215
1.6717895857e-214
1.61636139424e-214
1.58557254994e-214
1.53623048036e-214
1.5308710856e-214
1.49803188884e-214
1.45777636751e-214
1.41285901395e-214
1.36932686638e-214
1.38907267431e-214
1.33357586675e-214
1.32244389716e-214
1.29869604711e-214
1.27429855792e-214
1.24763396788e-214
1.22956897618e-214
1.19236942396e-214
1.1721646542e-214
1.15428408947e-214
1.13993675964e-214
1.08496689148e-214
1.10478267866e-214
1.08764875621e-214
1.07004920384e-214
1.01721018513e-214
1.01648822195e-214
9.74870980567e-215
9.79719256896e-215
9.71962607723e-215
9.55699201584e-215
9.30685987238e-215
9.16667885605e-215
9.036426573e-215
8.92612163588e-215
8.87850844744e-215
8.70104995512e-215
8.50681544458e-215
8.355578503e-215
8.16921829065e-215
8.2157374827e-215
8.12350890067e-215
7.97250177937e-215
7.91034351005e-215
7.77310812835e-215
7.66774472899e-215
7.58075317155e-215
7.41318853495e-215
7.37191691724e-215
7.25166229106e-215
7.2339880346e-215
7.09235432899e-215
7.03651728256e-215
6.98625306266e-215
6.97140330325e-215
6.87806658362e-215
6.71571647652e-215
6.67859377782e-215
6.66877436463e-215
6.59981787907e-215
6.61277985084e-215
6.4559093277e-215
6.43201341272e-215
6.41350353239e-215
6.41685151518e-215
6.40527289943e-215
6.34072267909e-215
6.18238301257e-215
6.22567842408e-215
6.18429285286e-215
6.2615880227e-215
6.19352843667e-215
6.16104773943e-215
6.19731202543e-215
6.12621886821e-215
6.15269309667e-215
1.5206148372e-214
1.52488190766e-214
1.49715714159e-214
1.47028313146e-214
1.4388318523e-214
1.41036897749e-214
1.37890613863e-214
1.35057151041e-214
1.31871343914e-214
1.26469665346e-214
1.27469316957e-214
1.24433845703e-214
1.2203048007e-214
1.19511561144e-214
1.17374337434e-214
1.15912127768e-214
1.11981034842e-214
1.09993730444e-214
1.08124276255e-214
1.07770615645e-214
1.04519654715e-214
1.03687949856e-214
1.0203764953e-214
1.00997485593e-214
9.78320669681e-215
9.59416360815e-215
9.42003710752e-215
9.08666009142e-215
8.96245859805e-215
8.99243491412e-215
8.73695434137e-215
8.60696373303e-215
8.47368997801e-215
8.18392390093e-215
8.06661094972e-215
8.18362145219e-215
7.99307018788e-215
7.8542477258e-215
7.7247627964e-215
7.43753733556e-215
7.64257965995e-215
7.49036712564e-215
7.43586279775e-215
7.30719759353e-215
7.19919612994e-215
7.00211408486e-215
6.95393816757e-215
6.89071488086e-215
6.80167423615e-215
6.76004600236e-215
6.68407556893e-215
6.59259959518e-215
6.53311452862e-215
6.5584260177e-215
6.46358032106e-215
6.31091462626e-215
6.27148713942e-215
6.29547639073e-215
6.18216044989e-215
6.20049383517e-215
6.0554127621e-215
6.00049322835e-215
6.02701514014e-215
6.06730245081e-215
6.05395323588e-215
5.95437450074e-215
5.81599142642e-215
5.85128497813e-215
5.77647574518e-215
5.90406709538e-215
5.82138223598e-215
5.76986705703e-215
5.79687029941e-215
5.76347628132e-215
5.77982188107e-215
1.46166959381e-214
1.42341824479e-214
1.39759051636e-214
1.37475617713e-214
1.34459510704e-214
1.31915539486e-214
1.2888313043e-214
1.26367645102e-214
1.2408518627e-214
1.21669180462e-214
1.19407702344e-214
1.16552774996e-214
1.14192478213e-214
1.11686077844e-214
1.09526127337e-214
1.05005571794e-214
1.04747837953e-214
1.02816781893e-214
1.00513788209e-214
9.54901341558e-215
9.77584753265e-215
9.68277471265e-215
9.51150233917e-215
9.45664957129e-215
9.16122217548e-215
8.97099377381e-215
8.82898525088e-215
8.65977978146e-215
8.57723272712e-215
8.43293525837e-215
8.16893071651e-215
8.0423553515e-215
7.93968949335e-215
7.87772338599e-215
7.77464405454e-215
7.65911885806e-215
7.47069035689e-215
7.33741117118e-215
7.23654433337e-215
7.16035775728e-215
7.15055982967e-215
6.99535034098e-215
6.81791080455e-215
6.83356643725e-215
6.74236562722e-215
6.45642518815e-215
6.51435288311e-215
6.3121221366e-215
6.35831675305e-215
6.18924142278e-215
6.12435942487e-215
6.01259992389e-215
6.09507032716e-215
6.13100119272e-215
5.92085587716e-215
5.90257300062e-215
5.71390117624e-215
5.90678728742e-215
5.7940788988e-215
5.81572330285e-215
5.65531449149e-215
5.54618735922e-215
5.59990599671e-215
5.66798649692e-215
5.67767443016e-215
5.55567013729e-215
5.23828415362e-215
5.45880467511e-215
5.30891074497e-215
5.29043591132e-215
5.44001261693e-215
5.296619652e-215
5.39092204095e-215
5.39967949687e-215
5.3655000145e-215
1.30269156276e-214
1.32015618244e-214
1.29545658607e-214
1.27751473373e-214
1.24799504753e-214
1.22621997501e-214
1.19639434309e-214
1.17256074069e-214
1.1522647862e-214
1.12940233996e-214
1.07129476013e-214
1.08322343367e-214
1.06222899026e-214
1.03741007221e-214
1.02311820984e-214
1.00966230375e-214
9.73759898103e-215
9.56311417397e-215
9.0548827305e-215
8.99185242067e-215
9.0300166496e-215
8.99080497674e-215
8.7997836036e-215
8.41575221278e-215
8.55165200797e-215
8.33000335409e-215
8.19005948001e-215
8.05191480916e-215
7.97960390055e-215
7.9066687431e-215
7.59813981206e-215
7.46477063819e-215
7.35889356203e-215
7.31904143519e-215
7.22124127134e-215
7.12473861827e-215
6.93768249086e-215
6.80598902423e-215
6.70615187863e-215
6.62739063144e-215
6.38317576136e-215
6.50850343596e-215
6.45058704964e-215
6.34841638644e-215
6.29373688577e-215
6.2198266875e-215
6.09494942592e-215
6.00449447378e-215
5.92442552645e-215
5.87085504787e-215
5.79901417101e-215
5.71884282993e-215
5.69232502517e-215
5.69830765285e-215
5.61035751807e-215
5.50030856285e-215
5.5137275774e-215
5.24575446201e-215
5.37482999775e-215
5.16216929877e-215
5.24874177746e-215
5.03048453861e-215
5.24750965737e-215
5.03843110921e-215
5.24376389382e-215
5.14568019934e-215
5.03088663108e-215
4.98295891442e-215
5.02176817112e-215
5.05903166344e-215
5.0474732763e-215
4.9054303499e-215
4.97216847153e-215
5.02377065521e-215
4.97220517013e-215
1.23367587526e-214
1.21058639704e-214
1.19511651546e-214
1.17872282196e-214
1.14871846881e-214
1.13179611313e-214
1.1022908286e-214
1.0794123346e-214
1.06200402906e-214
1.05285978496e-214
1.01505966232e-214
9.89645836975e-215
9.80484695686e-215
9.54466277659e-215
9.41312051769e-215
9.30892813633e-215
9.02029574071e-215
8.48100930448e-215
8.65359878146e-215
8.44603010957e-215
8.31211054029e-215
8.29610361777e-215
8.15990708464e-215
8.03847827621e-215
7.53896338539e-215
7.67666671324e-215
7.55044685104e-215
7.41414634148e-215
7.33619028978e-215
7.3133847524e-215
7.00559688652e-215
6.87936676916e-215
6.76897404877e-215
6.46052222163e-215
6.34465126981e-215
6.58040474896e-215
6.39459316877e-215
5.97357536615e-215
6.16522627756e-215
6.11923052369e-215
6.10665079557e-215
5.99562321131e-215
5.95052742321e-215
5.84948935485e-215
5.80471096182e-215
5.46691704076e-215
5.62967152158e-215
5.53906655556e-215
5.46704347384e-215
5.39600251155e-215
5.11720862798e-215
5.22983300919e-215
5.23899734898e-215
5.24426684086e-215
5.17737053635e-215
5.07083981574e-215
4.86245082527e-215
5.01718390103e-215
4.95534306732e-215
4.93059970179e-215
4.82171637672e-215
4.76135322021e-215
4.84997854656e-215
4.64067326648e-215
4.76805815129e-215
4.71646174536e-215
4.66423745548e-215
4.60547246755e-215
4.64004043753e-215
4.65075159895e-215
4.64515002163e-215
4.6143862329e-215
4.4499232691e-215
4.62822400059e-215
4.536578454e-215
1.12479288939e-214
1.10061844992e-214
1.08526711321e-214
1.08065427848e-214
1.0458552166e-214
1.03565309833e-214
1.00488425924e-214
9.81366393769e-215
9.65256398027e-215
9.67727290428e-215
9.28760620454e-215
9.09506809021e-215
8.94075753948e-215
8.72655735654e-215
8.45046770902e-215
8.53294741823e-215
8.34155229692e-215
8.04178987428e-215
7.91652678516e-215
7.80233826078e-215
7.61565831717e-215
7.55553576783e-215
7.45861868353e-215
7.43237826957e-215
7.16153061819e-215
7.00512332204e-215
6.89226311519e-215
6.74981530096e-215
6.65878187481e-215
6.37266251588e-215
6.3987172963e-215
6.28263976979e-215
6.22232852927e-215
6.16640503403e-215
6.02202445935e-215
6.00906567132e-215
5.90692406651e-215
5.67129719395e-215
5.33767809185e-215
5.26164384587e-215
5.57978463914e-215
5.46914853894e-215
5.43890375789e-215
5.33722370818e-215
5.33444565669e-215
5.19420242725e-215
5.16906574976e-215
5.05957225605e-215
4.99362134391e-215
4.97049581267e-215
4.87595626235e-215
4.7989317122e-215
4.78053373162e-215
4.54588382832e-215
4.73267967562e-215
4.64171884543e-215
4.61380578432e-215
4.57942069816e-215
4.51413603913e-215
4.48583305059e-215
4.32230247629e-215
4.38060140411e-215
4.42499722784e-215
4.37019624668e-215
4.35991282386e-215
4.27894381619e-215
4.29213694255e-215
4.32129612547e-215
4.25066148185e-215
4.23722135693e-215
4.23816832627e-215
4.22237205051e-215
4.13777664078e-215
4.21131039217e-215
4.10315153697e-215
1.0141831101e-214
9.88499938566e-215
9.70548043856e-215
9.80108271307e-215
9.38139897676e-215
8.78180921607e-215
9.07674260924e-215
8.87873654315e-215
8.61945739981e-215
8.19229252623e-215
8.43928515364e-215
8.20561305601e-215
8.07614006556e-215
7.90120229809e-215
7.63970064622e-215
7.25956423386e-215
7.53963255475e-215
7.27328822849e-215
7.12745945268e-215
7.02942386293e-215
6.8600438573e-215
6.80232578872e-215
6.69831263814e-215
6.31318265635e-215
6.49605926266e-215
6.32331205169e-215
6.21941369304e-215
6.07378216297e-215
6.03607859448e-215
6.03020308178e-215
5.77303294224e-215
5.65907754883e-215
5.52010708074e-215
5.57681362959e-215
5.41289652385e-215
5.41888109317e-215
5.35810201686e-215
5.15185012185e-215
5.0547630708e-215
4.94701039314e-215
5.03827671863e-215
4.92570973546e-215
4.91301954529e-215
4.80481501468e-215
4.55625426052e-215
4.68268211184e-215
4.5465154282e-215
4.56643169441e-215
4.50111251207e-215
4.49129956665e-215
4.40362602975e-215
4.32393426199e-215
4.28391656806e-215
4.29772518667e-215
4.27368630735e-215
4.18533591257e-215
4.15601177859e-215
3.8997515723e-215
4.06258077875e-215
3.77152240351e-215
4.04872802437e-215
3.95090190608e-215
3.93049431783e-215
3.76585282035e-215
3.89783528263e-215
3.83986277091e-215
3.88537073938e-215
3.92611866434e-215
3.84743054375e-215
3.80951086234e-215
3.86238112342e-215
3.82479434925e-215
3.72796227546e-215
3.77708702143e-215
3.70689168215e-215
9.01144321096e-215
8.74511026288e-215
8.45959722855e-215
8.12197715394e-215
8.49849286836e-215
8.14491680811e-215
8.03295473048e-215
7.94039425028e-215
7.742829141e-215
7.61330694807e-215
7.48079488537e-215
7.29890333396e-215
7.16991967478e-215
7.04604900459e-215
6.85159362367e-215
6.70755986318e-215
6.73556281505e-215
6.45335703347e-215
6.30786559939e-215
6.24645257597e-215
6.05857796262e-215
6.02636850923e-215
6.02189003954e-215
5.88969335008e-215
5.78189258086e-215
5.60576402096e-215
5.52641737646e-215
5.36463437771e-215
5.32738158004e-215
5.15076278346e-215
5.14736886769e-215
5.03069290149e-215
4.94259126019e-215
4.71076951789e-215
4.77797624298e-215
4.80237086083e-215
4.76840305919e-215
4.58120098929e-215
4.48116195696e-215
4.34498965361e-215
4.04019623493e-215
4.35887856296e-215
4.36822045552e-215
4.29427477776e-215
4.26925818794e-215
4.16245660269e-215
4.10875012277e-215
4.05472826065e-215
3.98821558482e-215
3.99271031342e-215
3.91327927668e-215
3.83222264593e-215
3.69765908315e-215
3.70319560632e-215
3.79686158552e-215
3.70997047514e-215
3.45531596185e-215
3.65549893105e-215
3.48316206656e-215
3.49488521357e-215
3.61571822945e-215
3.50651515947e-215
3.17813192067e-215
3.55871314066e-215
3.14339309312e-215
3.38897807737e-215
3.40443354024e-215
3.50574352589e-215
3.4238714987e-215
3.40594572914e-215
3.34734233675e-215
3.41466864274e-215
3.31215653149e-215
3.32748175023e-215
3.26557790142e-215
7.84176901131e-215
7.61657474274e-215
7.38992550382e-215
7.3890718579e-215
6.77929324382e-215
7.02773899646e-215
6.9293676996e-215
6.89988731916e-215
6.69289557775e-215
6.58543356514e-215
6.4556576577e-215
6.35556453035e-215
6.20376480276e-215
6.12769231255e-215
5.93639440201e-215
5.7440565174e-215
5.36374804136e-215
5.59696415737e-215
5.43843585538e-215
5.16154753264e-215
5.21224383008e-215
5.18050898779e-215
5.2283483793e-215
5.1057013286e-215
5.02177488566e-215
4.86117873069e-215
4.6921005715e-215
4.62279801753e-215
4.26296111028e-215
4.22765507692e-215
4.46572895865e-215
4.3556248374e-215
4.31866916639e-215
4.29271695311e-215
4.10281427155e-215
3.81951518248e-215
3.81331813397e-215
3.97319050676e-215
3.8934662238e-215
3.80667995899e-215
3.56839042487e-215
3.75940120216e-215
3.78896298119e-215
3.71674064788e-215
3.71360614472e-215
3.60828105323e-215
3.56208748259e-215
3.51684657229e-215
3.44686251399e-215
3.46692745808e-215
3.39770380514e-215
3.33007625755e-215
3.2970021094e-215
3.00463631596e-215
3.29540048823e-215
3.23638580411e-215
3.19211118971e-215
3.17898235998e-215
3.14010290974e-215
3.12626446518e-215
3.15551412521e-215
3.0659608176e-215
2.94290217625e-215
2.85497453147e-215
2.89602124201e-215
2.78714192948e-215
3.0155544143e-215
3.04186365176e-215
2.96978085406e-215
2.96742603304e-215
2.95491678871e-215
2.97170451994e-215
2.88094578978e-215
2.86061299101e-215
2.88811052522e-215
6.57603540541e-215
6.38461054058e-215
6.05654327821e-215
5.69557276971e-215
6.0569620421e-215
5.83317853624e-215
5.71616145474e-215
5.79798655998e-215
5.56507415333e-215
5.49060855756e-215
5.36888908706e-215
5.31565389156e-215
5.15224561181e-215
5.14863281153e-215
4.98530050142e-215
4.90475099889e-215
4.79159985078e-215
4.6893625127e-215
4.60328357178e-215
4.48918300387e-215
4.30955027638e-215
4.25647012371e-215
3.83370422417e-215
4.25826544002e-215
4.18867856711e-215
4.11188612388e-215
4.00941312421e-215
3.94189662089e-215
3.86955632914e-215
3.79364259662e-215
3.72708859797e-215
3.62390886471e-215
3.58658317375e-215
3.61670193135e-215
3.47529334609e-215
3.46741208285e-215
3.44253564956e-215
3.32074398544e-215
3.25933538322e-215
3.22332285785e-215
3.14698825817e-215
3.11202882778e-215
3.16647091585e-215
3.09261988793e-215
3.11663779391e-215
3.01488303757e-215
2.97337325791e-215
2.93890734074e-215
2.86248822981e-215
2.59646900944e-215
2.84111581835e-215
2.77603472979e-215
2.78493632237e-215
2.70931153975e-215
2.46752277949e-215
2.7049503331e-215
2.66045882732e-215
2.6525539198e-215
2.6169098015e-215
2.60954236176e-215
2.48942533605e-215
2.56392663253e-215
2.53443297191e-215
2.51452427726e-215
2.4323072603e-215
2.51675133237e-215
2.52987610146e-215
2.4958041851e-215
2.48268616085e-215
2.48539367104e-215
2.45537887931e-215
2.4736134384e-215
2.41926631285e-215
2.36800070561e-215
2.42135653439e-215
5.28406487041e-215
5.21806604934e-215
4.95937911022e-215
4.72568100574e-215
4.58948137711e-215
4.63956927569e-215
4.42328333958e-215
4.11016782921e-215
4.41203339879e-215
4.35584288123e-215
4.2773775762e-215
4.27403639008e-215
4.05427466998e-215
4.14677819522e-215
3.96957671957e-215
3.92437896748e-215
3.85522473236e-215
3.73865342956e-215
3.68349272468e-215
3.60339838301e-215
3.42584432504e-215
3.0934594891e-215
3.28399847112e-215
3.39447065169e-215
3.34344748743e-215
3.29339916011e-215
3.19570814537e-215
3.14401090584e-215
3.08588165243e-215
3.01997438412e-215
2.9808376009e-215
2.87719286085e-215
2.82663368485e-215
2.91548551782e-215
2.7534794613e-215
2.45564811877e-215
2.43613686714e-215
2.65536170918e-215
2.6044138853e-215
2.59014370355e-215
2.4997449453e-215
2.44857149416e-215
2.5331406379e-215
2.4521863573e-215
2.505265283e-215
2.40827302233e-215
2.37229982779e-215
2.35103012622e-215
2.32466384875e-215
2.28891987694e-215
2.27373065648e-215
2.20484492852e-215
1.96635533237e-215
2.19006280816e-215
2.1799342472e-215
2.16228208765e-215
2.11953485274e-215
2.11759214019e-215
2.08858223038e-215
2.10987966567e-215
2.04908303834e-215
1.99873414675e-215
2.03290569514e-215
1.95819018749e-215
1.98853394294e-215
2.01651908565e-215
1.97833342441e-215
1.80283084555e-215
1.98158267713e-215
1.93970693023e-215
1.96160900213e-215
1.95719337172e-215
1.94504150099e-215
1.87773099819e-215
1.94050714575e-215
4.04223037247e-215
4.12817218608e-215
3.8969095003e-215
3.80327359052e-215
3.70756019961e-215
3.61430338473e-215
3.52159964326e-215
3.43717591494e-215
3.36702172035e-215
3.34100168097e-215
3.23904462994e-215
2.90644874411e-215
3.01544638848e-215
2.76694039309e-215
3.0371794235e-215
3.01919143409e-215
2.99131944384e-215
2.86819290513e-215
2.83936107014e-215
2.82207870798e-215
2.74307774132e-215
2.64898033157e-215
2.47201386494e-215
2.19197677407e-215
2.56815885418e-215
2.55170064822e-215
2.45508421249e-215
2.4188002351e-215
2.37455333471e-215
2.30929896832e-215
2.30269062663e-215
2.2082743566e-215
2.12049687391e-215
1.9628880033e-215
2.19493757511e-215
2.1439230467e-215
2.09368341487e-215
2.04750515678e-215
1.9990841202e-215
2.01345299843e-215
1.91898037993e-215
1.83995269111e-215
1.68664660629e-215
1.86285945964e-215
1.81815920132e-215
1.85714891682e-215
1.82420577528e-215
1.77412089108e-215
1.79114730008e-215
1.76035589625e-215
1.75913608139e-215
1.73043344317e-215
1.70003499169e-215
1.68274468134e-215
1.67602086378e-215
1.67038204789e-215
1.62816043085e-215
1.63140872668e-215
1.60733741141e-215
1.65202471612e-215
1.5974990007e-215
1.4606736809e-215
1.5237919212e-215
1.54049634797e-215
1.5260911586e-215
1.51212443898e-215
1.45581772863e-215
1.48021173755e-215
1.52521790965e-215
1.41279019472e-215
1.50750876274e-215