/*--------------------------------*- C++ -*----------------------------------*\
| =========                 |                                                 |
| \\      /  F ield         | OpenFOAM: The Open Source CFD Toolbox           |
|  \\    /   O peration     | Version:  v1706                                 |
|   \\  /    A nd           | Web:      www.OpenFOAM.com                      |
|    \\/     M anipulation  |                                                 |
\*---------------------------------------------------------------------------*/
FoamFile
{
    version     2.0;
    format      ascii;
    class       volScalarField;
    location    "0.014";
    object      p;
}
// * * * * * * * * * * * * * * * * * * * * * * * * * * * * * * * * * * * * * //

dimensions      [1 -1 -2 0 0 0 0];


internalField   nonuniform List<scalar> 
15860
(
7.86999999578
7.8699999932
7.86999999135
7.86999999044
7.86999997004
7.8699998759
7.86999969966
7.86999950879
7.86999926154
7.86999935028
7.86999257711
7.86996440963
7.86993639766
7.86996945128
7.86916770793
7.86760129653
7.89091932272
8.37315034267
9.4188612861
10.3181753523
21.3720298793
101.122104454
1045.63027007
1826.78711367
2303.69187559
2644.47261685
2954.58747202
3309.64701626
3906.36418389
4655.57563759
5434.95991421
5758.53841767
5920.00273439
6142.7267011
6297.41149865
6442.8713432
6582.10659467
6715.77273335
6823.65473824
6925.56997197
7005.20193513
7091.85627673
7112.25253381
7183.89076501
7272.35870168
7343.04957814
7359.79642218
7370.15873575
7379.04729684
7388.54770764
7397.33843487
7408.75974085
7415.9652705
7435.7929964
7453.99649314
7486.47831759
7515.60293334
7544.19115905
7580.98528611
7638.96696021
7631.08733693
7527.60264744
7497.58704079
7521.28540938
7550.57450309
7574.67534478
7593.2416967
7604.56532402
7617.5896638
7624.79267907
7633.03314996
7636.82003833
7642.53136358
7654.55135995
7649.25767718
7.87000000002
7.87000000002
7.87000000001
7.87000000001
7.87000000002
7.87000000001
7.86999999991
7.86999999977
7.8699999998
7.87000000236
7.86999999823
7.86999996163
7.8699999341
7.87000016167
7.86999992311
7.87000094021
7.87016090048
7.87169405354
7.87454200034
7.8777435337
7.93464474411
8.86349093098
14.5435645879
17.0062487905
18.070360879
18.9101257524
19.8340090044
20.6253889749
23.7542653853
212.710482434
1286.94065164
2033.79693916
2292.43057206
2491.95600406
2705.5640567
2913.8292708
3111.57143262
3304.06806482
3487.01400457
3718.47786008
3990.27750649
4384.9191356
4947.26195045
5835.0618005
6106.17506828
6264.01726046
6461.51834923
6611.48784049
6737.58721424
6836.34097862
6912.89512327
6956.75203096
7019.90364574
7059.68541229
7097.25864919
7160.23299349
7216.78933748
7286.67961583
7346.53911693
7417.23068197
7429.86545729
7389.96672516
7427.48931718
7507.95023447
7540.0593495
7554.58737594
7566.3234599
7572.72004678
7581.69286158
7585.04778007
7589.6297821
7590.26549174
7592.74643379
7601.21246605
7605.25299602
7.87000000001
7.87000000002
7.87000000001
7.87000000001
7.87000000001
7.87
7.87000000001
7.87000000002
7.87000000002
7.87000000005
7.87000000026
7.87000000076
7.87000000166
7.87000000917
7.87000003837
7.87000010204
7.87000093049
7.87000635712
7.87001529927
7.87002786625
7.87026273029
7.87435564476
7.89296235774
7.9030026468
7.90797664924
7.91212987104
7.91671055647
7.92068765605
7.9626816215
9.91377097802
17.2730678867
20.6052530182
20.8231644406
20.8248137945
20.7393845967
20.6528353596
20.5747112888
20.5196741243
20.4778282646
20.5034809393
20.4820100408
23.7581860672
244.201970623
1155.3174589
1665.27981622
2102.71520305
2379.32528184
2620.58321549
2851.53051335
3064.93429942
3264.70805423
3442.80921956
3617.61498284
3810.93732924
4012.47295894
4210.27957915
4383.08600879
4572.96029229
4748.75723593
4970.27594538
5209.30096808
5921.78636718
6185.45005843
6317.60258061
6445.35031445
6567.51963308
6668.41845113
6740.04292644
6809.94130799
6858.98916261
6908.72202998
6942.68766424
6979.20584844
7006.68167948
6990.9415029
7.87000000001
7.87000000002
7.87000000001
7.87000000001
7.87
7.87
7.87
7.87000000001
7.86999999999
7.86999999999
7.86999999999
7.87
7.87000000001
7.87000000007
7.87000000033
7.87000000102
7.870000007
7.87000003199
7.8700000641
7.8700001212
7.87000136731
7.87001919367
7.87007299318
7.8701031524
7.8701191303
7.8701326868
7.87014710428
7.87015916587
7.87039629817
7.87792902556
7.9045047426
7.9192628549
7.92076867985
7.92121529812
7.9212651058
7.92128453439
7.92131951485
7.92143767369
7.92160537003
7.92204459496
7.92222636794
7.96539201334
10.144905938
16.5605210078
19.4375252047
21.1753872296
21.3763534857
21.3493161082
21.2616181506
21.1660974386
21.0955004129
21.0510946017
21.0185418919
21.0553805752
21.074967178
21.2850049371
45.6681877276
117.687129598
182.69414694
252.492755556
405.521218593
1200.30385801
1589.93450574
1907.21496137
2127.63568963
2264.57272446
2380.08956444
2470.40947129
2559.73259894
2629.41353033
2701.83945217
2756.52885385
2820.63529327
2864.77512849
2828.1037467
7.87
7.87000000002
7.87000000001
7.87000000001
7.87
7.87
7.87
7.87
7.87
7.86999999999
7.86999999999
7.86999999999
7.86999999999
7.87
7.86999999999
7.87
7.87000000004
7.87000000024
7.87000000052
7.87000000119
7.87000001132
7.87000009384
7.87000028781
7.8700004002
7.87000046429
7.87000051818
7.87000057073
7.87000062263
7.87000217021
7.87003038361
7.87010636431
7.87014889529
7.87015510589
7.87015831675
7.870160464
7.87016240736
7.87016428407
7.87016629923
7.87016841485
7.87017122536
7.87017279378
7.87043358049
7.87835855488
7.90228257496
7.91532742343
7.92385105315
7.92530159193
7.92561423035
7.92560265249
7.92551789592
7.92552247252
7.92562388272
7.92576306598
7.92620016188
7.92651468507
7.92885672303
8.09472490288
8.71168421746
9.35878939789
10.0511109779
11.5250679619
17.1461233991
19.4192361148
21.0994833987
21.846400367
21.973963303
22.0265414683
22.0280294829
22.0218548869
21.995972698
21.9702323737
21.936760172
21.9030999742
21.8804844258
21.9120490579
7.87
7.87000000001
7.87000000002
7.87000000001
7.87
7.87000000001
7.87
7.87
7.87
7.86999999999
7.86999999999
7.86999999999
7.86999999999
7.87
7.86999999999
7.86999999999
7.86999999998
7.87
7.87000000001
7.87000000003
7.87000000012
7.87000000079
7.87000000196
7.87000000255
7.87000000289
7.87000000318
7.87000000346
7.87000000384
7.87000001277
7.87000012384
7.87000037901
7.8700005228
7.87000055399
7.87000057673
7.87000059624
7.87000061436
7.87000063142
7.87000064819
7.87000066484
7.87000068278
7.87000069085
7.87000224252
7.87003020352
7.87010041672
7.87013946907
7.87016577329
7.87017230218
7.87017541423
7.87017744928
7.8701790848
7.87018083361
7.87018270329
7.87018458042
7.87018718696
7.87018944571
7.87020573261
7.87074876784
7.87262677462
7.87468867833
7.87703875269
7.88249786272
7.90499457484
7.91550699221
7.9237445842
7.9276703817
7.92853838442
7.92901517582
7.92919512962
7.92934485574
7.92935104088
7.92936746476
7.92930280036
7.92924751484
7.92921867475
7.92937356431
7.87
7.87000000001
7.87000000001
7.87000000001
7.87
7.87
7.87
7.87
7.87
7.86999999998
7.86999999999
7.86999999999
7.87
7.87
7.86999999999
7.86999999999
7.86999999999
7.86999999999
7.87000000001
7.87000000002
7.87000000002
7.87000000003
7.87000000004
7.87000000004
7.87000000004
7.87000000003
7.87000000002
7.87000000002
7.87000000012
7.87000000081
7.87000000212
7.87000000276
7.87000000294
7.87000000311
7.87000000326
7.87000000341
7.87000000355
7.87000000367
7.8700000038
7.87000000393
7.87000000412
7.87000001308
7.87000011987
7.87000035663
7.87000048906
7.87000058467
7.87000061954
7.87000064279
7.87000066172
7.87000067815
7.8700006941
7.87000070958
7.87000072444
7.870000741
7.87000075439
7.87000084081
7.87000275538
7.87000854601
7.8700148269
7.87002209276
7.87003984711
7.87010823991
7.87014040164
7.8701657674
7.8701786163
7.87018233731
7.87018484623
7.87018621851
7.87018759111
7.87018826359
7.87018906974
7.87018937764
7.8701898324
7.87019017729
7.8701903826
7.87
7.87
7.87000000001
7.87000000001
7.87
7.87
7.87
7.87
7.87
7.86999999998
7.86999999999
7.86999999999
7.86999999999
7.87
7.86999999999
7.86999999999
7.86999999999
7.86999999999
7.87000000001
7.87000000002
7.87000000002
7.87000000003
7.87000000003
7.87000000002
7.87000000001
7.87000000001
7.87
7.86999999999
7.87
7.87000000001
7.87000000002
7.87000000002
7.87000000003
7.87000000004
7.87000000004
7.87000000005
7.87000000006
7.87000000005
7.87000000004
7.87000000004
7.87000000004
7.87000000011
7.87000000075
7.87000000191
7.8700000025
7.87000000295
7.87000000316
7.87000000335
7.8700000035
7.87000000363
7.87000000377
7.87000000391
7.87000000403
7.87000000414
7.87000000426
7.87000000498
7.87000001217
7.87000003128
7.87000005188
7.8700000767
7.87000014289
7.87000038626
7.87000050006
7.87000059164
7.87000064237
7.87000066223
7.87000067699
7.87000068743
7.87000069673
7.87000070364
7.87000071001
7.87000071478
7.87000071955
7.87000072287
7.87000072237
7.87
7.87
7.87000000001
7.87000000001
7.87
7.86999999999
7.87
7.87
7.87
7.86999999999
7.86999999999
7.86999999999
7.86999999999
7.87
7.86999999999
7.86999999999
7.86999999998
7.86999999999
7.87
7.87000000002
7.87000000002
7.87000000003
7.87000000003
7.87000000002
7.87000000001
7.87000000001
7.87
7.86999999999
7.87
7.87
7.87000000001
7.87000000001
7.87000000001
7.87000000001
7.87000000001
7.87000000002
7.87000000003
7.87000000002
7.87000000001
7.87000000001
7.87000000001
7.87000000001
7.87000000001
7.87000000002
7.87000000003
7.87000000003
7.87000000002
7.87000000002
7.87000000002
7.87000000001
7.87000000001
7.87000000002
7.87000000003
7.87000000002
7.87000000002
7.87000000004
7.8700000001
7.87000000021
7.87000000032
7.87000000042
7.87000000076
7.87000000196
7.87000000248
7.8700000029
7.87000000315
7.87000000326
7.87000000338
7.87000000343
7.87000000351
7.87000000355
7.87000000361
7.87000000368
7.87000000372
7.87000000376
7.87000000377
7.87
7.87
7.87
7.87000000001
7.87000000001
7.87
7.87
7.87
7.87
7.86999999999
7.86999999998
7.86999999999
7.86999999999
7.87
7.86999999999
7.86999999999
7.86999999999
7.86999999999
7.87000000001
7.87000000002
7.87000000002
7.87000000003
7.87000000002
7.87000000003
7.87000000001
7.87000000001
7.87000000001
7.87
7.87
7.87
7.87
7.87000000001
7.87000000001
7.87000000001
7.87000000001
7.87000000002
7.87000000002
7.87000000002
7.87000000001
7.87000000001
7.87000000001
7.87000000001
7.87000000001
7.87000000001
7.87000000001
7.87000000001
7.87
7.87
7.87
7.86999999998
7.86999999998
7.86999999999
7.86999999999
7.86999999998
7.86999999999
7.87000000001
7.87000000002
7.87000000003
7.87000000003
7.87000000002
7.87
7.87000000001
7.87000000001
7.87000000002
7.87000000003
7.87000000002
7.87000000003
7.87000000002
7.87000000002
7.87
7.87000000001
7.87000000004
7.87000000003
7.87000000004
7.87000000008
7.87
7.87
7.87
7.87000000001
7.87000000001
7.87
7.87
7.87
7.87
7.86999999999
7.86999999998
7.86999999999
7.86999999999
7.87
7.87
7.87
7.86999999999
7.86999999998
7.87
7.87000000002
7.87000000002
7.87000000003
7.87000000002
7.87000000002
7.87000000001
7.87000000001
7.87000000001
7.87
7.87
7.87
7.87000000001
7.87000000001
7.87000000001
7.87000000001
7.87000000001
7.87000000002
7.87000000002
7.87000000003
7.87000000001
7.87000000001
7.87000000001
7.87000000001
7.87000000001
7.87000000001
7.87000000001
7.87000000001
7.87
7.87
7.87000000001
7.86999999999
7.86999999999
7.86999999999
7.86999999999
7.86999999998
7.86999999999
7.87
7.87000000002
7.87000000003
7.87000000003
7.87000000002
7.86999999999
7.87
7.86999999999
7.87
7.87000000001
7.87
7.87000000001
7.86999999999
7.86999999999
7.86999999998
7.86999999998
7.87000000001
7.87000000001
7.87000000001
7.87000000005
7.87000000001
7.87
7.87
7.87
7.87000000001
7.87
7.87
7.87
7.87
7.87
7.86999999998
7.86999999999
7.86999999998
7.86999999999
7.87
7.87
7.86999999999
7.86999999998
7.86999999999
7.87000000001
7.87000000001
7.87000000002
7.87000000002
7.87000000002
7.87000000001
7.87
7.87000000001
7.87000000001
7.86999999999
7.87
7.87000000001
7.87000000001
7.87000000001
7.87000000001
7.87000000001
7.87000000001
7.87000000002
7.87000000003
7.87000000001
7.87000000002
7.87000000001
7.87000000001
7.87000000001
7.87000000001
7.87000000001
7.87000000001
7.87
7.86999999999
7.87
7.86999999999
7.86999999998
7.86999999999
7.86999999999
7.86999999998
7.86999999999
7.87
7.87000000002
7.87000000003
7.87000000003
7.87000000002
7.87
7.87
7.87
7.87
7.87000000001
7.87
7.87000000002
7.86999999999
7.86999999999
7.86999999998
7.86999999998
7.87000000001
7.87
7.87000000001
7.87000000005
7.87
7.87
7.87
7.87000000001
7.87
7.87000000001
7.87
7.86999999999
7.86999999999
7.87
7.86999999999
7.86999999998
7.86999999999
7.86999999999
7.87
7.87
7.87
7.86999999999
7.86999999999
7.87000000001
7.87000000001
7.87000000002
7.87000000002
7.87000000003
7.87000000001
7.87
7.87000000001
7.87000000001
7.87
7.87
7.87
7.87
7.87000000001
7.87000000002
7.87000000001
7.87000000001
7.87000000002
7.87000000003
7.87000000002
7.87000000001
7.87000000001
7.87000000001
7.87000000001
7.87000000001
7.87000000001
7.87000000002
7.87
7.86999999999
7.86999999999
7.86999999999
7.86999999998
7.86999999999
7.86999999999
7.86999999998
7.86999999999
7.87
7.87000000001
7.87000000003
7.87000000003
7.87000000002
7.87
7.87
7.87
7.87
7.87
7.87
7.87000000002
7.86999999999
7.87
7.86999999998
7.86999999999
7.87000000001
7.87000000001
7.87000000001
7.87000000005
7.87
7.87
7.86999999999
7.87000000001
7.87000000001
7.87000000002
7.87
7.87
7.86999999999
7.87
7.87
7.86999999999
7.86999999999
7.86999999999
7.87
7.87
7.87
7.86999999999
7.86999999999
7.87
7.87000000001
7.87000000002
7.87000000002
7.87000000004
7.87000000002
7.87000000001
7.87
7.87000000001
7.87
7.86999999999
7.87
7.87
7.87000000001
7.87000000002
7.87000000001
7.87
7.87000000001
7.87000000002
7.87000000002
7.87000000001
7.87000000002
7.87000000001
7.87000000001
7.87000000001
7.87000000001
7.87000000002
7.87
7.87
7.86999999999
7.86999999999
7.86999999999
7.86999999999
7.86999999999
7.86999999998
7.86999999998
7.87
7.87000000001
7.87000000004
7.87000000002
7.87000000002
7.86999999999
7.86999999999
7.87
7.87
7.87
7.87
7.87000000001
7.86999999999
7.86999999999
7.86999999998
7.86999999999
7.87
7.87000000001
7.87000000001
7.87000000005
7.87
7.87
7.87
7.87000000001
7.87000000002
7.87000000002
7.87000000001
7.87
7.87
7.87000000001
7.87
7.86999999999
7.86999999998
7.86999999999
7.86999999999
7.87
7.87000000001
7.87
7.87
7.87
7.87
7.87000000001
7.87000000001
7.87000000004
7.87000000002
7.87000000001
7.87000000001
7.87000000001
7.86999999999
7.86999999999
7.87
7.87
7.87000000001
7.87000000002
7.87000000001
7.87000000001
7.87
7.87000000002
7.87000000002
7.87000000002
7.87000000001
7.87000000001
7.87000000001
7.87
7.87000000001
7.87000000002
7.87
7.86999999999
7.86999999999
7.86999999999
7.86999999999
7.86999999999
7.87
7.86999999998
7.86999999997
7.87
7.87000000001
7.87000000003
7.87000000003
7.87000000001
7.87
7.86999999999
7.87
7.87
7.87
7.87000000001
7.87000000001
7.86999999998
7.86999999999
7.86999999998
7.86999999999
7.87000000001
7.87000000001
7.87000000001
7.87000000005
7.87
7.87
7.86999999999
7.87
7.87000000001
7.87000000001
7.87000000001
7.87
7.87
7.87000000001
7.87
7.87
7.86999999998
7.86999999999
7.86999999999
7.87
7.87000000001
7.87
7.87
7.87000000001
7.87000000001
7.87000000001
7.87000000001
7.87000000003
7.87000000003
7.87000000002
7.87
7.87
7.86999999999
7.86999999998
7.87
7.87
7.87000000001
7.87000000001
7.87000000001
7.87000000002
7.87000000001
7.87000000002
7.87000000003
7.87000000003
7.87000000001
7.87000000001
7.87000000002
7.87
7.87000000001
7.87000000002
7.87
7.86999999999
7.86999999999
7.86999999998
7.86999999999
7.86999999999
7.87
7.86999999998
7.86999999997
7.87
7.87000000001
7.87000000003
7.87000000003
7.87000000002
7.87
7.87
7.87
7.87
7.87000000001
7.87
7.87000000002
7.86999999999
7.86999999999
7.86999999998
7.86999999999
7.87000000001
7.87000000001
7.87000000002
7.87000000004
7.87
7.87
7.86999999999
7.87
7.87000000001
7.87000000001
7.87000000001
7.87
7.87
7.87
7.87
7.86999999999
7.86999999998
7.87
7.87
7.87
7.87
7.86999999999
7.86999999999
7.87000000001
7.87000000001
7.87000000001
7.87000000001
7.87000000003
7.87000000002
7.87000000001
7.87
7.87
7.87
7.86999999999
7.86999999999
7.87
7.87000000001
7.87000000001
7.87000000001
7.87000000002
7.87000000002
7.87000000003
7.87000000003
7.87000000003
7.87000000002
7.87000000001
7.87000000002
7.87000000001
7.87000000001
7.87000000002
7.87
7.86999999999
7.86999999999
7.86999999999
7.87
7.86999999999
7.87
7.86999999998
7.86999999997
7.87
7.87000000001
7.87000000002
7.87000000002
7.87000000002
7.87
7.86999999999
7.87
7.86999999999
7.87
7.87
7.87000000001
7.86999999999
7.86999999999
7.86999999997
7.86999999999
7.87000000001
7.87000000001
7.87000000001
7.87000000004
7.87
7.87
7.86999999999
7.86999999998
7.86999999999
7.87
7.87000000001
7.87000000001
7.87
7.87000000001
7.87
7.86999999999
7.86999999998
7.87
7.87
7.87
7.87
7.86999999999
7.87
7.87
7.87000000002
7.87000000001
7.87000000001
7.87000000002
7.87000000003
7.87000000002
7.87000000001
7.87000000001
7.87000000001
7.86999999999
7.86999999999
7.87
7.87
7.87000000001
7.87000000001
7.87000000001
7.87000000001
7.87000000002
7.87000000002
7.87000000003
7.87000000002
7.87
7.87000000001
7.87
7.87000000001
7.87000000001
7.87
7.86999999999
7.86999999999
7.86999999998
7.87
7.86999999999
7.87
7.86999999999
7.86999999998
7.87
7.87000000001
7.87000000002
7.87000000002
7.87000000002
7.87
7.86999999999
7.87000000001
7.86999999999
7.87
7.86999999999
7.87000000001
7.86999999999
7.86999999999
7.86999999998
7.86999999998
7.87000000001
7.87
7.87000000001
7.87000000004
7.86999999999
7.87
7.86999999999
7.86999999998
7.86999999997
7.86999999998
7.87
7.87000000001
7.86999999999
7.87
7.87
7.86999999999
7.86999999998
7.87
7.87000000001
7.86999999999
7.87
7.86999999999
7.87
7.86999999999
7.87000000001
7.87000000001
7.87000000001
7.87000000001
7.87000000002
7.87000000002
7.87000000001
7.87000000003
7.87000000001
7.87
7.86999999998
7.87
7.87000000001
7.87
7.87000000001
7.87000000001
7.87000000001
7.87000000002
7.87000000002
7.87000000003
7.87000000003
7.87000000001
7.87000000001
7.87
7.87000000001
7.87000000002
7.87
7.86999999999
7.86999999999
7.86999999999
7.87
7.86999999999
7.87
7.87
7.86999999998
7.87
7.87000000001
7.87000000002
7.87000000002
7.87000000003
7.87000000001
7.86999999998
7.87000000001
7.87
7.86999999999
7.86999999998
7.87000000001
7.86999999998
7.87
7.86999999998
7.86999999999
7.87000000001
7.87000000001
7.87000000001
7.87000000005
7.86999999999
7.87
7.87
7.86999999999
7.86999999997
7.86999999997
7.87
7.87000000001
7.87
7.87
7.87000000001
7.87000000001
7.86999999999
7.87
7.87000000001
7.87
7.86999999999
7.86999999999
7.86999999999
7.86999999999
7.87000000001
7.87000000001
7.87000000002
7.87000000001
7.87
7.87000000002
7.87000000002
7.87000000002
7.87000000003
7.87000000001
7.86999999999
7.87
7.87000000001
7.87000000001
7.87000000002
7.87000000002
7.87000000001
7.87000000002
7.87000000002
7.87000000003
7.87000000003
7.87000000001
7.87000000001
7.87
7.87
7.87000000002
7.87
7.86999999999
7.86999999999
7.86999999999
7.87000000001
7.86999999999
7.87
7.86999999999
7.86999999998
7.86999999999
7.87000000001
7.87000000002
7.87000000002
7.87000000002
7.87000000001
7.86999999999
7.87000000001
7.87
7.86999999997
7.86999999997
7.87000000001
7.86999999999
7.87
7.86999999999
7.86999999999
7.87
7.87
7.87000000001
7.87000000004
7.86999999998
7.86999999999
7.86999999999
7.87
7.86999999999
7.86999999999
7.86999999999
7.87000000001
7.87
7.87
7.87
7.87000000001
7.86999999999
7.87
7.87000000001
7.87
7.86999999999
7.86999999999
7.86999999999
7.86999999999
7.87000000001
7.87000000002
7.87000000002
7.87000000001
7.87
7.87000000002
7.87000000002
7.87000000003
7.87000000003
7.87000000002
7.86999999999
7.87
7.86999999999
7.87000000001
7.87000000001
7.87000000003
7.87000000001
7.87000000002
7.87000000002
7.87000000001
7.87000000003
7.87000000002
7.87000000002
7.86999999999
7.87
7.87000000002
7.87
7.86999999999
7.86999999999
7.86999999999
7.87
7.87
7.87000000001
7.86999999999
7.86999999997
7.86999999999
7.87
7.87000000002
7.87000000001
7.87000000001
7.87000000001
7.87
7.87000000002
7.87
7.86999999997
7.86999999997
7.87000000001
7.87
7.87
7.86999999999
7.86999999998
7.87000000001
7.87
7.87000000001
7.87000000004
7.86999999999
7.87
7.86999999999
7.87000000001
7.87
7.87
7.86999999999
7.87
7.87
7.86999999999
7.86999999999
7.87
7.87
7.87000000001
7.87000000002
7.87000000001
7.86999999999
7.86999999998
7.86999999999
7.86999999999
7.87000000001
7.87
7.87000000002
7.87000000001
7.87
7.87000000001
7.87000000001
7.87000000003
7.87000000003
7.87000000002
7.87000000001
7.86999999999
7.86999999999
7.87000000001
7.87000000002
7.87000000002
7.87000000001
7.87000000001
7.87000000002
7.87
7.87000000002
7.87000000002
7.87000000002
7.87
7.86999999999
7.87000000002
7.87
7.86999999999
7.86999999999
7.86999999999
7.87
7.86999999999
7.87
7.87
7.86999999998
7.87
7.87
7.87000000002
7.87000000001
7.87000000001
7.87000000002
7.87
7.87000000002
7.87
7.86999999998
7.86999999998
7.87000000001
7.87
7.87
7.87
7.86999999999
7.87000000001
7.87
7.87
7.87000000003
7.86999999999
7.87
7.86999999999
7.86999999999
7.87000000001
7.87000000001
7.87000000001
7.87000000001
7.87
7.86999999999
7.86999999999
7.87
7.87
7.87
7.87000000001
7.87000000002
7.87
7.86999999997
7.86999999998
7.86999999999
7.87000000001
7.87000000001
7.87000000001
7.87000000001
7.87000000001
7.87000000001
7.87
7.87000000001
7.87000000002
7.87000000001
7.87000000001
7.87
7.87
7.87
7.87000000001
7.87000000001
7.87000000001
7.87000000001
7.87
7.87
7.87000000002
7.87000000001
7.87000000002
7.87
7.86999999999
7.87
7.87
7.86999999999
7.86999999999
7.86999999999
7.87
7.86999999999
7.87000000001
7.87
7.86999999999
7.87
7.87000000001
7.87000000001
7.87000000001
7.87000000001
7.87000000001
7.86999999999
7.87000000002
7.87000000001
7.86999999999
7.86999999998
7.87000000001
7.87000000001
7.87000000001
7.87
7.86999999998
7.87000000001
7.87
7.87000000001
7.87000000002
7.86999999999
7.86999999999
7.86999999999
7.86999999999
7.87000000001
7.87000000001
7.87000000001
7.87
7.87
7.86999999999
7.86999999998
7.86999999999
7.86999999999
7.87
7.87
7.87000000001
7.87000000001
7.86999999999
7.86999999998
7.86999999998
7.87000000001
7.87000000001
7.87000000001
7.87000000001
7.87000000001
7.87000000001
7.87000000001
7.87
7.87000000001
7.87000000001
7.87000000001
7.87
7.86999999999
7.86999999999
7.87000000001
7.87000000002
7.87000000002
7.87000000002
7.87000000001
7.87000000001
7.87000000002
7.87000000001
7.87000000001
7.87000000001
7.86999999998
7.86999999999
7.87
7.86999999999
7.86999999999
7.86999999999
7.87
7.86999999999
7.87
7.87000000001
7.87
7.87
7.87000000001
7.87000000001
7.87000000001
7.87000000002
7.87000000001
7.87
7.87000000002
7.87
7.87
7.86999999999
7.87000000001
7.87000000001
7.87000000001
7.87
7.86999999999
7.87
7.87
7.87000000001
7.87000000002
7.86999999998
7.86999999999
7.87
7.87
7.87
7.87
7.87
7.87
7.87
7.87
7.86999999999
7.86999999999
7.86999999999
7.87
7.87
7.87
7.87
7.87000000001
7.86999999999
7.86999999998
7.87000000001
7.87000000001
7.87
7.87000000001
7.87
7.87
7.87
7.87
7.87000000001
7.87000000001
7.87
7.87
7.87
7.87
7.87
7.87000000001
7.87000000001
7.87000000002
7.87000000001
7.87000000001
7.87000000002
7.87
7.87000000001
7.87
7.86999999999
7.86999999999
7.87
7.87
7.86999999999
7.86999999999
7.87
7.87
7.87
7.87000000001
7.87
7.87
7.87000000001
7.87000000001
7.87
7.87000000002
7.87
7.86999999999
7.87000000002
7.87
7.87
7.86999999999
7.87
7.87
7.87
7.87
7.86999999999
7.87
7.87
7.87000000001
7.87000000002
7.86999999999
7.87
7.87
7.87000000001
7.87
7.87
7.86999999999
7.87
7.87
7.87
7.87
7.86999999999
7.86999999999
7.87
7.87
7.87
7.87
7.87
7.87
7.86999999999
7.87
7.87
7.87
7.87
7.87
7.87
7.87
7.87
7.87
7.87
7.87
7.87
7.87
7.86999999999
7.86999999999
7.87
7.87
7.87
7.87000000001
7.87
7.87000000002
7.87
7.87
7.87
7.87
7.87
7.87
7.86999999999
7.86999999999
7.86999999999
7.87
7.87
7.87
7.87
7.87
7.87
7.87
7.87
7.87
7.87
7.86999999999
7.86999999999
7.87000000001
7.87000000001
7.87
7.87
7.87
7.87
7.87
7.87
7.87
7.87
7.86999999999
7.87
7.87
7.86999930575
7.86997365546
7.87021468677
8.18554684467
33.9765311391
1439.23695407
5024.51925385
5829.94112302
5972.38962018
5977.73829919
5941.19660284
5924.443415
5913.53977121
5900.90224388
5881.80244897
5864.68396086
5846.18766559
5831.96312125
5815.02448782
5803.84001257
5790.18485795
5782.59994885
5773.91390694
5767.43156625
5761.33950525
5756.2143155
5752.03662221
5748.07859587
5746.10287195
5744.5720493
5744.62925652
5749.46891423
5750.17118736
5777.16338247
5739.00305606
7.86999890764
7.86995339148
7.87019732091
8.34539796122
42.8333130117
2199.06252278
5374.14036358
5975.80447169
5977.14030258
6000.71368085
5965.37295361
5948.79340941
5939.35209984
5935.49680032
5923.17008162
5903.64516818
5878.44760506
5861.85700472
5838.89671028
5825.37622073
5807.97023367
5798.41764945
5787.30535247
5779.27780295
5771.43102208
5765.35893734
5760.49602359
5756.31457711
5753.85883496
5752.16851615
5751.83334206
5756.56211966
5757.31034043
5784.75296542
5746.58361563
7.86999860768
7.86993709145
7.86998337248
8.44038113038
47.6580041995
2816.91042367
5487.20193213
5964.98635392
5987.8183019
6049.08269441
6024.47171937
6009.99890569
5987.74128944
5979.38687831
5971.37614666
5949.3792903
5909.57148545
5884.98982233
5858.61560921
5842.90566857
5823.92293735
5812.66198821
5800.9934284
5792.17551307
5784.44723725
5778.06240301
5773.20031523
5768.75818721
5766.28735412
5764.61772436
5764.27907679
5769.1625022
5770.26249059
5798.05373816
5759.9145121
7.86999851254
7.86993702393
7.87062635314
8.51388224072
49.8389594027
3336.74624572
5669.7471675
6027.23377098
6010.66309023
6072.98560951
6077.81885825
6079.60791142
6050.41169128
6022.61925092
6003.840627
5981.22615102
5940.12186975
5909.01558814
5881.11990066
5863.22146627
5843.88665427
5831.65474953
5820.29797694
5811.08929158
5803.2700553
5796.38324396
5791.2289654
5786.48982578
5783.77568169
5782.07060847
5781.53510068
5786.4970295
5787.4511989
5815.56229633
5777.25086549
7.86999639024
7.86989933148
7.89611045316
11.8039983953
170.032549102
3903.66707486
5784.28890294
6204.17151678
6083.28810229
6087.13673845
6086.3306018
6111.83249879
6095.87237992
6060.84590816
6025.44639831
6000.63991429
5963.57345654
5935.09104907
5906.53021529
5886.12109377
5868.64926291
5856.28189703
5846.00939838
5837.10295581
5829.92475245
5823.68153875
5818.80883515
5814.41843343
5811.75028475
5810.1702125
5809.52651712
5814.7601739
5815.73124901
5844.11405684
5805.47572896
7.86998330388
7.8695906268
8.01931953165
22.2069561289
548.839188367
4537.03623575
5825.8642735
6235.45883848
6185.66550676
6140.33814096
6119.74442171
6130.37796085
6118.22589045
6093.79005519
6059.30356569
6029.87979287
5996.29598658
5970.0034834
5947.67761735
5922.56086428
5907.93027423
5894.32101048
5884.64907866
5875.82110061
5868.4943817
5862.00263029
5856.86829213
5851.98253986
5849.42339588
5847.25029907
5846.9472327
5851.41270004
5852.9837247
5880.86123643
5841.93382612
7.86995208398
7.86865591937
8.25084002582
35.8160231536
1222.74373131
5061.40177175
5925.44100895
6197.42483588
6225.79562799
6184.08052058
6165.20994532
6157.02200211
6140.71650463
6118.54896908
6094.20322064
6068.97216325
6046.72671241
6021.99304912
6000.68460171
5977.98439954
5959.49118025
5944.84655276
5933.32699902
5922.85718482
5914.37598605
5907.03456796
5901.19428069
5895.46429584
5892.93857188
5889.86259739
5889.93079215
5893.40393252
5895.4435003
5923.06812304
5884.42306076
7.8699180662
7.86769114088
8.46593962268
45.9504976339
1840.45299275
5465.67386532
6122.0224442
6194.98647673
6249.48599415
6202.2264015
6185.3421873
6175.00550821
6165.35341028
6151.93200265
6136.99636396
6115.42412573
6094.85488655
6071.31694417
6049.52121938
6026.72516792
6007.23756018
5991.20768925
5978.78475244
5967.16575275
5958.12743898
5949.8815334
5943.61374185
5937.49217108
5934.70731653
5931.58281093
5931.56225412
5935.23342668
5937.33460998
5965.16605345
5926.20827953
7.86986691116
7.86604016068
8.72526090276
56.9704846173
2749.86490762
5661.53274604
6235.62353772
6166.13197666
6263.28924334
6238.74206087
6245.00324333
6226.74042894
6213.74501785
6199.59311994
6187.77399253
6158.5565729
6133.84450424
6107.33292189
6086.95967919
6062.37487815
6045.24485339
6030.17824353
6018.23764243
6007.49606262
5998.71713556
5990.77369279
5984.57033343
5978.75334854
5975.87426233
5973.09750657
5972.96302593
5977.12688323
5979.40115515
6007.76306707
5968.43275121
7.8698837752
7.86938202078
8.94100246751
62.279176323
3518.03751129
5769.89647652
6376.53434536
6276.37958064
6269.2637701
6287.31095918
6307.46435911
6300.35874949
6262.31145825
6242.36554128
6222.54633397
6201.10228761
6167.71285295
6142.77006359
6118.29453438
6097.08589197
6079.6685645
6066.36729068
6055.61825115
6046.48034032
6038.91694735
6032.35835183
6027.17707356
6022.42808743
6020.17108626
6018.1116508
6018.18963185
6022.75807008
6024.7564044
6053.51463916
6013.88927341
7.8690904998
7.98619369282
19.4092336327
373.642506902
4418.4595215
5838.67796718
6372.43698964
6427.48261655
6360.77625455
6313.3618116
6306.81167081
6313.63574936
6308.27222844
6282.54006574
6254.52517575
6229.5187223
6208.83425047
6181.17220287
6158.36830481
6138.46718437
6123.13836526
6110.71544238
6100.83615557
6092.0562641
6085.38595616
6078.60896203
6073.77476383
6068.85402245
6066.80337194
6064.75356442
6065.1780532
6070.10584239
6072.67791982
6101.95250787
6062.01757817
7.86464316203
8.4780356066
44.4947035757
1410.0541692
5301.43736758
6081.55914811
6212.16877703
6332.39220446
6410.1754726
6384.80555911
6337.46331806
6322.78138203
6319.10460565
6324.9942568
6303.30552057
6280.40245475
6252.28723989
6231.61743415
6208.66627817
6192.57612739
6176.41127566
6164.15790227
6153.3116712
6144.21867584
6136.62489125
6129.55062564
6124.11350949
6119.10062888
6116.51484415
6114.40127823
6114.16573894
6118.97431392
6120.6166304
6150.04582675
6109.6020889
7.86014196502
8.91637657662
61.1936082975
2430.58226424
5674.61116995
6522.72884534
6334.91525006
6284.48392176
6362.21283406
6426.01442883
6422.728457
6378.02560471