/*--------------------------------*- C++ -*----------------------------------*\
| =========                 |                                                 |
| \\      /  F ield         | OpenFOAM: The Open Source CFD Toolbox           |
|  \\    /   O peration     | Version:  v1706                                 |
|   \\  /    A nd           | Web:      www.OpenFOAM.com                      |
|    \\/     M anipulation  |                                                 |
\*---------------------------------------------------------------------------*/
FoamFile
{
    version     2.0;
    format      ascii;
    class       volScalarField;
    location    "0.014";
    object      rho;
}
// * * * * * * * * * * * * * * * * * * * * * * * * * * * * * * * * * * * * * //

dimensions      [1 -3 0 0 0 0 0];


internalField   nonuniform List<scalar> 
15860
(
0.000297549042537
0.000297549042555
0.000297549042572
0.000297549042623
0.000297549043068
0.000297549044094
0.000297549045488
0.000297549046625
0.000297549048032
0.000297549050847
0.000297549095896
0.000297549242206
0.000297549408051
0.000297550123573
0.000297555549586
0.000297565386523
0.000297595920069
0.00029792609551
0.000298574151824
0.00029922564587
0.00030357046308
0.000355772756548
0.000851956794039
0.00122993753316
0.00146497271488
0.00161493153472
0.00172541812033
0.00185816174179
0.00224104536519
0.00280192945981
0.00340401258462
0.00370009959755
0.00377378713509
0.00386187615637
0.00394908323761
0.00402845534171
0.00409080584549
0.00416120498607
0.00422421555527
0.0042914450854
0.0043781989501
0.00449083364652
0.0045745643443
0.00458491372917
0.00463137538747
0.00469641468287
0.00474282399084
0.00477481427707
0.00479501464311
0.00480899216982
0.00481651476066
0.00482600985287
0.00483269769264
0.00483991660082
0.00484978421163
0.00487057088443
0.00488966370312
0.00491116064509
0.00494886104353
0.00501344352981
0.00504222924037
0.00494679451209
0.00493070116799
0.00494758528994
0.00498384507534
0.00501351862021
0.00503319524202
0.00504766591483
0.00505870972511
0.00506855246211
0.00507564349437
0.00508255988464
0.00508579452418
0.00509184181018
0.00510495659234
0.000297549042496
0.000297549042496
0.000297549042496
0.000297549042496
0.000297549042499
0.000297549042507
0.000297549042518
0.000297549042528
0.000297549042545
0.000297549042606
0.0002975490431
0.000297549044129
0.000297549045204
0.000297549050194
0.000297549102152
0.000297549229079
0.000297549649711
0.000297552070545
0.000297555477267
0.000297560633464
0.000297648519239
0.000298323964163
0.000300168709809
0.000301325720439
0.000301910952326
0.000302292280811
0.000302639125606
0.000302992131999
0.000305917720812
0.000409271741729
0.000841385897804
0.0011001431941
0.00123897087843
0.00135825273433
0.00149442007048
0.00163074326479
0.00176302438564
0.00189207822535
0.00201584141555
0.00215873914107
0.00233197719963
0.00259189778784
0.00301301697778
0.00355986693882
0.00374983808378
0.00387922612296
0.00395859990119
0.00403459923907
0.00409868836803
0.00414911045227
0.00418018107642
0.00419575069218
0.00422737034284
0.00425841969813
0.00428861781998
0.00433442447595
0.00437415607313
0.00442084664534
0.00447147932602
0.00454613683544
0.00460952481472
0.00457163407327
0.00461091029871
0.00466901943007
0.00470998671544
0.00473306407716
0.0047483450249
0.00476122297771
0.00477054833079
0.00477939145286
0.00478521168781
0.00479115625969
0.00479365623816
0.00479972855653
0.00481601347719
0.000297549042495
0.000297549042495
0.000297549042495
0.000297549042495
0.000297549042495
0.000297549042495
0.000297549042495
0.000297549042496
0.000297549042496
0.000297549042496
0.000297549042501
0.000297549042516
0.000297549042535
0.00029754904264
0.00029754904328
0.000297549044447
0.000297549048449
0.000297549084418
0.000297549151045
0.000297549242405
0.000297550064854
0.000297555734158
0.000297576502324
0.000297590332357
0.000297597550524
0.000297602584667
0.000297607356914
0.000297615577617
0.000297707727584
0.000298452576411
0.000300247722138
0.000301405759116
0.000301764467769
0.000302039175153
0.000302295249671
0.000302533642802
0.000302751015832
0.000302953821667
0.00030314239498
0.000303357757515
0.000303578863944
0.000306230146872
0.000420700853794
0.000802523897228
0.00097230972765
0.00113063370196
0.00127855127377
0.00142218583099
0.0015671128992
0.00170556080945
0.0018364049646
0.00195380233094
0.00206875410039
0.00218476272221
0.00230791709153
0.00242905804477
0.00253443052724
0.00264840313181
0.00275564014007
0.00289519014344
0.0030842503781
0.00352514120014
0.00371571680361
0.0038264871896
0.0038993346594
0.00394772818411
0.00399049744677
0.00402596426607
0.00405779707054
0.00408403903088
0.00410759127263
0.00412664625671
0.00414333840528
0.00415687610008
0.00415920577521
0.000297549042495
0.000297549042495
0.000297549042495
0.000297549042495
0.000297549042495
0.000297549042495
0.000297549042495
0.000297549042495
0.000297549042495
0.000297549042495
0.000297549042495
0.000297549042495
0.000297549042495
0.000297549042496
0.000297549042502
0.000297549042517
0.000297549042585
0.000297549042913
0.000297549043315
0.000297549043816
0.00029754905265
0.000297549149332
0.00029754938831
0.000297549519736
0.000297549587453
0.000297549636026
0.000297549684327
0.000297549725611
0.000297549952691
0.000297555404786
0.000297578311853
0.000297593257256
0.000297597993562
0.000297601509856
0.000297604727103
0.000297607644665
0.000297610254227
0.000297612644795
0.000297614847242
0.000297617228393
0.000297620945175
0.000297703186069
0.000298444017871
0.000300169535557
0.000301051426948
0.000301708585762
0.000302101167996
0.000302414098744
0.000302695682724
0.000302945192699
0.000303176342727
0.000303386131552
0.00030358019623
0.000303778549866
0.00030397555008
0.000304265129935
0.000315114406807
0.000347598209628
0.000377613332255
0.000410943108397
0.000489506154419
0.000804734558727
0.0009351473842
0.0010339549486
0.00111873407237
0.00118886275996
0.00125122323653
0.0013029331351
0.00135456470721
0.00139687867201
0.00144065218492
0.00147531309184
0.00151518191361
0.00154284762083
0.00152040241613
0.000297549042495
0.000297549042495
0.000297549042495
0.000297549042495
0.000297549042495
0.000297549042495
0.000297549042495
0.000297549042495
0.000297549042495
0.000297549042495
0.000297549042495
0.000297549042495
0.000297549042495
0.000297549042495
0.000297549042495
0.000297549042495
0.000297549042496
0.0002975490425
0.000297549042506
0.000297549042519
0.000297549042625
0.000297549043394
0.000297549045594
0.000297549046958
0.000297549047734
0.000297549048304
0.000297549048823
0.000297549049641
0.000297549058644
0.000297549153733
0.000297549405711
0.000297549540766
0.000297549583707
0.000297549617168
0.000297549648764
0.00029754967808
0.000297549705169
0.000297549730789
0.000297549755391
0.000297549782936
0.000297549815206
0.000297550162149
0.00029755625783
0.000297577031589
0.000297588479092
0.000297597635124
0.000297602822864
0.000297606843841
0.000297610322527
0.000297613332699
0.000297616080901
0.000297618590414
0.000297620867965
0.000297623175245
0.000297625368987
0.000297632982832
0.000297712519813
0.000297902234622
0.000298074139798
0.000298282273931
0.000298724389715
0.000300358764461
0.000301080011148
0.000301625126738
0.000301971492938
0.000302185193015
0.000302346888658
0.000302503328686
0.000302604463529
0.000302725234133
0.000302798627749
0.00030289542312
0.000302963881834
0.000303007088261
0.000302994876908
0.000297549042495
0.000297549042495
0.000297549042495
0.000297549042495
0.000297549042495
0.000297549042495
0.000297549042495
0.000297549042495
0.000297549042495
0.000297549042495
0.000297549042495
0.000297549042495
0.000297549042495
0.000297549042495
0.000297549042495
0.000297549042495
0.000297549042495
0.000297549042495
0.000297549042495
0.000297549042495
0.000297549042497
0.000297549042508
0.000297549042532
0.000297549042544
0.000297549042551
0.000297549042557
0.000297549042562
0.000297549042568
0.000297549042596
0.000297549043331
0.000297549045711
0.000297549047142
0.000297549047653
0.00029754904806
0.000297549048441
0.000297549048798
0.000297549049129
0.000297549049442
0.000297549049741
0.000297549050045
0.000297549050412
0.000297549057405
0.000297549148782
0.000297549366287
0.000297549473616
0.000297549557275
0.000297549607448
0.000297549647983
0.000297549684095
0.000297549716169
0.000297549746143
0.00029754977367
0.000297549799102
0.000297549824701
0.00029754985398
0.000297549906061
0.000297550349694
0.000297551567303
0.00029755285487
0.000297554431577
0.00029755842357
0.000297578562701
0.000297588140069
0.000297595546974
0.00029760039596
0.000297603183449
0.00029760545531
0.000297607102625
0.000297608714621
0.00029760988288
0.000297611103842
0.000297611959598
0.000297612985059
0.000297613614549
0.000297613026391
0.000297549042495
0.000297549042495
0.000297549042495
0.000297549042495
0.000297549042495
0.000297549042495
0.000297549042495
0.000297549042495
0.000297549042495
0.000297549042495
0.000297549042495
0.000297549042495
0.000297549042495
0.000297549042495
0.000297549042495
0.000297549042495
0.000297549042495
0.000297549042495
0.000297549042495
0.000297549042495
0.000297549042495
0.000297549042495
0.000297549042495
0.000297549042496
0.000297549042496
0.000297549042496
0.000297549042496
0.000297549042496
0.000297549042497
0.000297549042507
0.000297549042531
0.000297549042543
0.000297549042547
0.000297549042551
0.000297549042554
0.000297549042558
0.000297549042561
0.000297549042564
0.000297549042567
0.00029754904257
0.000297549042573
0.00029754904261
0.00029754904338
0.000297549045438
0.000297549046584
0.0002975490475
0.000297549048048
0.000297549048488
0.00029754904888
0.000297549049229
0.000297549049557
0.000297549049863
0.000297549050148
0.000297549050436
0.000297549050692
0.000297549051159
0.00029754905979
0.000297549078924
0.000297549095624
0.000297549112026
0.000297549158615
0.000297549361445
0.000297549448016
0.000297549511017
0.000297549553955
0.000297549579237
0.000297549601411
0.000297549615609
0.000297549633111
0.000297549643195
0.000297549657191
0.000297549664505
0.000297549676157
0.000297549683823
0.000297549674839
0.000297549042495
0.000297549042495
0.000297549042495
0.000297549042495
0.000297549042495
0.000297549042495
0.000297549042495
0.000297549042495
0.000297549042495
0.000297549042495
0.000297549042495
0.000297549042495
0.000297549042495
0.000297549042495
0.000297549042495
0.000297549042495
0.000297549042495
0.000297549042495
0.000297549042495
0.000297549042495
0.000297549042495
0.000297549042495
0.000297549042495
0.000297549042495
0.000297549042495
0.000297549042495
0.000297549042495
0.000297549042495
0.000297549042495
0.000297549042495
0.000297549042495
0.000297549042496
0.000297549042496
0.000297549042496
0.000297549042496
0.000297549042496
0.000297549042496
0.000297549042496
0.000297549042496
0.000297549042496
0.000297549042496
0.000297549042497
0.000297549042506
0.000297549042526
0.000297549042536
0.000297549042544
0.00029754904255
0.000297549042554
0.000297549042558
0.000297549042561
0.000297549042564
0.000297549042567
0.00029754904257
0.000297549042573
0.000297549042576
0.000297549042583
0.00029754904264
0.000297549042776
0.000297549042913
0.000297549043062
0.000297549043523
0.00029754904558
0.000297549046534
0.000297549047277
0.000297549047777
0.000297549048071
0.000297549048309
0.0002975490485
0.000297549048667
0.000297549048809
0.000297549048937
0.000297549049045
0.000297549049155
0.00029754904923
0.000297549049179
0.000297549042495
0.000297549042495
0.000297549042495
0.000297549042495
0.000297549042495
0.000297549042495
0.000297549042495
0.000297549042495
0.000297549042495
0.000297549042495
0.000297549042495
0.000297549042495
0.000297549042495
0.000297549042495
0.000297549042495
0.000297549042495
0.000297549042495
0.000297549042495
0.000297549042495
0.000297549042495
0.000297549042495
0.000297549042495
0.000297549042495
0.000297549042495
0.000297549042495
0.000297549042495
0.000297549042495
0.000297549042495
0.000297549042495
0.000297549042495
0.000297549042495
0.000297549042495
0.000297549042495
0.000297549042495
0.000297549042495
0.000297549042495
0.000297549042495
0.000297549042495
0.000297549042495
0.000297549042495
0.000297549042495
0.000297549042495
0.000297549042495
0.000297549042495
0.000297549042495
0.000297549042496
0.000297549042496
0.000297549042496
0.000297549042496
0.000297549042496
0.000297549042496
0.000297549042496
0.000297549042496
0.000297549042496
0.000297549042496
0.000297549042496
0.000297549042497
0.000297549042499
0.0002975490425
0.000297549042502
0.000297549042507
0.000297549042526
0.000297549042535
0.000297549042542
0.000297549042546
0.000297549042549
0.000297549042551
0.000297549042553
0.000297549042555
0.000297549042556
0.000297549042558
0.000297549042559
0.00029754904256
0.000297549042561
0.000297549042561
0.000297549042495
0.000297549042495
0.000297549042495
0.000297549042495
0.000297549042495
0.000297549042495
0.000297549042495
0.000297549042495
0.000297549042495
0.000297549042495
0.000297549042495
0.000297549042495
0.000297549042495
0.000297549042495
0.000297549042495
0.000297549042495
0.000297549042495
0.000297549042495
0.000297549042495
0.000297549042495
0.000297549042495
0.000297549042495
0.000297549042495
0.000297549042495
0.000297549042495
0.000297549042495
0.000297549042495
0.000297549042495
0.000297549042495
0.000297549042495
0.000297549042495
0.000297549042495
0.000297549042495
0.000297549042495
0.000297549042495
0.000297549042495
0.000297549042495
0.000297549042495
0.000297549042495
0.000297549042495
0.000297549042495
0.000297549042495
0.000297549042495
0.000297549042495
0.000297549042495
0.000297549042495
0.000297549042495
0.000297549042495
0.000297549042495
0.000297549042495
0.000297549042495
0.000297549042495
0.000297549042495
0.000297549042495
0.000297549042495
0.000297549042495
0.000297549042495
0.000297549042495
0.000297549042495
0.000297549042495
0.000297549042495
0.000297549042495
0.000297549042496
0.000297549042496
0.000297549042496
0.000297549042496
0.000297549042496
0.000297549042496
0.000297549042496
0.000297549042496
0.000297549042496
0.000297549042496
0.000297549042496
0.000297549042496
0.000297549042497
0.000297549042495
0.000297549042495
0.000297549042495
0.000297549042495
0.000297549042495
0.000297549042495
0.000297549042495
0.000297549042495
0.000297549042495
0.000297549042495
0.000297549042495
0.000297549042495
0.000297549042495
0.000297549042495
0.000297549042495
0.000297549042495
0.000297549042495
0.000297549042495
0.000297549042495
0.000297549042495
0.000297549042495
0.000297549042495
0.000297549042495
0.000297549042495
0.000297549042495
0.000297549042495
0.000297549042495
0.000297549042495
0.000297549042495
0.000297549042495
0.000297549042495
0.000297549042495
0.000297549042495
0.000297549042495
0.000297549042495
0.000297549042495
0.000297549042495
0.000297549042495
0.000297549042495
0.000297549042495
0.000297549042495
0.000297549042495
0.000297549042495
0.000297549042495
0.000297549042495
0.000297549042495
0.000297549042495
0.000297549042495
0.000297549042495
0.000297549042495
0.000297549042495
0.000297549042495
0.000297549042495
0.000297549042495
0.000297549042495
0.000297549042495
0.000297549042495
0.000297549042495
0.000297549042495
0.000297549042495
0.000297549042495
0.000297549042495
0.000297549042495
0.000297549042495
0.000297549042495
0.000297549042495
0.000297549042495
0.000297549042495
0.000297549042495
0.000297549042495
0.000297549042495
0.000297549042495
0.000297549042495
0.000297549042496
0.000297549042497
0.000297549042495
0.000297549042495
0.000297549042495
0.000297549042495
0.000297549042495
0.000297549042495
0.000297549042495
0.000297549042495
0.000297549042495
0.000297549042495
0.000297549042495
0.000297549042495
0.000297549042495
0.000297549042495
0.000297549042495
0.000297549042495
0.000297549042495
0.000297549042495
0.000297549042495
0.000297549042495
0.000297549042495
0.000297549042495
0.000297549042495
0.000297549042495
0.000297549042495
0.000297549042495
0.000297549042495
0.000297549042495
0.000297549042495
0.000297549042495
0.000297549042495
0.000297549042495
0.000297549042495
0.000297549042495
0.000297549042495
0.000297549042495
0.000297549042495
0.000297549042495
0.000297549042495
0.000297549042495
0.000297549042495
0.000297549042495
0.000297549042495
0.000297549042495
0.000297549042495
0.000297549042495
0.000297549042495
0.000297549042495
0.000297549042495
0.000297549042495
0.000297549042495
0.000297549042495
0.000297549042495
0.000297549042495
0.000297549042495
0.000297549042495
0.000297549042495
0.000297549042495
0.000297549042495
0.000297549042495
0.000297549042495
0.000297549042495
0.000297549042495
0.000297549042495
0.000297549042495
0.000297549042495
0.000297549042495
0.000297549042495
0.000297549042495
0.000297549042495
0.000297549042495
0.000297549042495
0.000297549042495
0.000297549042496
0.000297549042497
0.000297549042495
0.000297549042495
0.000297549042495
0.000297549042495
0.000297549042495
0.000297549042495
0.000297549042495
0.000297549042495
0.000297549042495
0.000297549042495
0.000297549042495
0.000297549042495
0.000297549042495
0.000297549042495
0.000297549042495
0.000297549042495
0.000297549042495
0.000297549042495
0.000297549042495
0.000297549042495
0.000297549042495
0.000297549042495
0.000297549042495
0.000297549042495
0.000297549042495
0.000297549042495
0.000297549042495
0.000297549042495
0.000297549042495
0.000297549042495
0.000297549042495
0.000297549042495
0.000297549042495
0.000297549042495
0.000297549042495
0.000297549042495
0.000297549042495
0.000297549042495
0.000297549042495
0.000297549042495
0.000297549042495
0.000297549042495
0.000297549042495
0.000297549042495
0.000297549042495
0.000297549042495
0.000297549042495
0.000297549042495
0.000297549042495
0.000297549042495
0.000297549042495
0.000297549042495
0.000297549042495
0.000297549042495
0.000297549042495
0.000297549042495
0.000297549042495
0.000297549042495
0.000297549042495
0.000297549042495
0.000297549042495
0.000297549042495
0.000297549042495
0.000297549042495
0.000297549042495
0.000297549042495
0.000297549042495
0.000297549042495
0.000297549042495
0.000297549042495
0.000297549042495
0.000297549042495
0.000297549042495
0.000297549042496
0.000297549042497
0.000297549042495
0.000297549042495
0.000297549042495
0.000297549042495
0.000297549042495
0.000297549042495
0.000297549042495
0.000297549042495
0.000297549042495
0.000297549042495
0.000297549042495
0.000297549042495
0.000297549042495
0.000297549042495
0.000297549042495
0.000297549042495
0.000297549042495
0.000297549042495
0.000297549042495
0.000297549042495
0.000297549042495
0.000297549042495
0.000297549042495
0.000297549042495
0.000297549042495
0.000297549042495
0.000297549042495
0.000297549042495
0.000297549042495
0.000297549042495
0.000297549042495
0.000297549042495
0.000297549042495
0.000297549042495
0.000297549042495
0.000297549042495
0.000297549042495
0.000297549042495
0.000297549042495
0.000297549042495
0.000297549042495
0.000297549042495
0.000297549042495
0.000297549042495
0.000297549042495
0.000297549042495
0.000297549042495
0.000297549042495
0.000297549042495
0.000297549042495
0.000297549042495
0.000297549042495
0.000297549042495
0.000297549042495
0.000297549042495
0.000297549042495
0.000297549042495
0.000297549042495
0.000297549042495
0.000297549042495
0.000297549042495
0.000297549042495
0.000297549042495
0.000297549042495
0.000297549042495
0.000297549042495
0.000297549042495
0.000297549042495
0.000297549042495
0.000297549042495
0.000297549042495
0.000297549042495
0.000297549042495
0.000297549042496
0.000297549042496
0.000297549042495
0.000297549042495
0.000297549042495
0.000297549042495
0.000297549042495
0.000297549042495
0.000297549042495
0.000297549042495
0.000297549042495
0.000297549042495
0.000297549042495
0.000297549042495
0.000297549042495
0.000297549042495
0.000297549042495
0.000297549042495
0.000297549042495
0.000297549042495
0.000297549042495
0.000297549042495
0.000297549042495
0.000297549042495
0.000297549042495
0.000297549042495
0.000297549042495
0.000297549042495
0.000297549042495
0.000297549042495
0.000297549042495
0.000297549042495
0.000297549042495
0.000297549042495
0.000297549042495
0.000297549042495
0.000297549042495
0.000297549042495
0.000297549042495
0.000297549042495
0.000297549042495
0.000297549042495
0.000297549042495
0.000297549042495
0.000297549042495
0.000297549042495
0.000297549042495
0.000297549042495
0.000297549042495
0.000297549042495
0.000297549042495
0.000297549042495
0.000297549042495
0.000297549042495
0.000297549042495
0.000297549042495
0.000297549042495
0.000297549042495
0.000297549042495
0.000297549042495
0.000297549042495
0.000297549042495
0.000297549042495
0.000297549042495
0.000297549042495
0.000297549042495
0.000297549042495
0.000297549042495
0.000297549042495
0.000297549042495
0.000297549042495
0.000297549042495
0.000297549042495
0.000297549042495
0.000297549042495
0.000297549042496
0.000297549042496
0.000297549042495
0.000297549042495
0.000297549042495
0.000297549042495
0.000297549042495
0.000297549042495
0.000297549042495
0.000297549042495
0.000297549042495
0.000297549042495
0.000297549042495
0.000297549042495
0.000297549042495
0.000297549042495
0.000297549042495
0.000297549042495
0.000297549042495
0.000297549042495
0.000297549042495
0.000297549042495
0.000297549042495
0.000297549042495
0.000297549042495
0.000297549042495
0.000297549042495
0.000297549042495
0.000297549042495
0.000297549042495
0.000297549042495
0.000297549042495
0.000297549042495
0.000297549042495
0.000297549042495
0.000297549042495
0.000297549042495
0.000297549042495
0.000297549042495
0.000297549042495
0.000297549042495
0.000297549042495
0.000297549042495
0.000297549042495
0.000297549042495
0.000297549042495
0.000297549042495
0.000297549042495
0.000297549042495
0.000297549042495
0.000297549042495
0.000297549042495
0.000297549042495
0.000297549042495
0.000297549042495
0.000297549042495
0.000297549042495
0.000297549042495
0.000297549042495
0.000297549042495
0.000297549042495
0.000297549042495
0.000297549042495
0.000297549042495
0.000297549042495
0.000297549042495
0.000297549042495
0.000297549042495
0.000297549042495
0.000297549042495
0.000297549042495
0.000297549042495
0.000297549042495
0.000297549042495
0.000297549042495
0.000297549042496
0.000297549042496
0.000297549042495
0.000297549042495
0.000297549042495
0.000297549042495
0.000297549042495
0.000297549042495
0.000297549042495
0.000297549042495
0.000297549042495
0.000297549042495
0.000297549042495
0.000297549042495
0.000297549042495
0.000297549042495
0.000297549042495
0.000297549042495
0.000297549042495
0.000297549042495
0.000297549042495
0.000297549042495
0.000297549042495
0.000297549042495
0.000297549042495
0.000297549042495
0.000297549042495
0.000297549042495
0.000297549042495
0.000297549042495
0.000297549042495
0.000297549042495
0.000297549042495
0.000297549042495
0.000297549042495
0.000297549042495
0.000297549042495
0.000297549042495
0.000297549042495
0.000297549042495
0.000297549042495
0.000297549042495
0.000297549042495
0.000297549042495
0.000297549042495
0.000297549042495
0.000297549042495
0.000297549042495
0.000297549042495
0.000297549042495
0.000297549042495
0.000297549042495
0.000297549042495
0.000297549042495
0.000297549042495
0.000297549042495
0.000297549042495
0.000297549042495
0.000297549042495
0.000297549042495
0.000297549042495
0.000297549042495
0.000297549042495
0.000297549042495
0.000297549042495
0.000297549042495
0.000297549042495
0.000297549042495
0.000297549042495
0.000297549042495
0.000297549042495
0.000297549042495
0.000297549042495
0.000297549042495
0.000297549042495
0.000297549042496
0.000297549042496
0.000297549042495
0.000297549042495
0.000297549042495
0.000297549042495
0.000297549042495
0.000297549042495
0.000297549042495
0.000297549042495
0.000297549042495
0.000297549042495
0.000297549042495
0.000297549042495
0.000297549042495
0.000297549042495
0.000297549042495
0.000297549042495
0.000297549042495
0.000297549042495
0.000297549042495
0.000297549042495
0.000297549042495
0.000297549042495
0.000297549042495
0.000297549042495
0.000297549042495
0.000297549042495
0.000297549042495
0.000297549042495
0.000297549042495
0.000297549042495
0.000297549042495
0.000297549042495
0.000297549042495
0.000297549042495
0.000297549042495
0.000297549042495
0.000297549042495
0.000297549042495
0.000297549042495
0.000297549042495
0.000297549042495
0.000297549042495
0.000297549042495
0.000297549042495
0.000297549042495
0.000297549042495
0.000297549042495
0.000297549042495
0.000297549042495
0.000297549042495
0.000297549042495
0.000297549042495
0.000297549042495
0.000297549042495
0.000297549042495
0.000297549042495
0.000297549042495
0.000297549042495
0.000297549042495
0.000297549042495
0.000297549042495
0.000297549042495
0.000297549042495
0.000297549042495
0.000297549042495
0.000297549042495
0.000297549042495
0.000297549042495
0.000297549042495
0.000297549042495
0.000297549042495
0.000297549042495
0.000297549042495
0.000297549042496
0.000297549042496
0.000297549042495
0.000297549042495
0.000297549042495
0.000297549042495
0.000297549042495
0.000297549042495
0.000297549042495
0.000297549042495
0.000297549042495
0.000297549042495
0.000297549042495
0.000297549042495
0.000297549042495
0.000297549042495
0.000297549042495
0.000297549042495
0.000297549042495
0.000297549042495
0.000297549042495
0.000297549042495
0.000297549042495
0.000297549042495
0.000297549042495
0.000297549042495
0.000297549042495
0.000297549042495
0.000297549042495
0.000297549042495
0.000297549042495
0.000297549042495
0.000297549042495
0.000297549042495
0.000297549042495
0.000297549042495
0.000297549042495
0.000297549042495
0.000297549042495
0.000297549042495
0.000297549042495
0.000297549042495
0.000297549042495
0.000297549042495
0.000297549042495
0.000297549042495
0.000297549042495
0.000297549042495
0.000297549042495
0.000297549042495
0.000297549042495
0.000297549042495
0.000297549042495
0.000297549042495
0.000297549042495
0.000297549042495
0.000297549042495
0.000297549042495
0.000297549042495
0.000297549042495
0.000297549042495
0.000297549042495
0.000297549042495
0.000297549042495
0.000297549042495
0.000297549042495
0.000297549042495
0.000297549042495
0.000297549042495
0.000297549042495
0.000297549042495
0.000297549042495
0.000297549042495
0.000297549042495
0.000297549042495
0.000297549042495
0.000297549042496
0.000297549042495
0.000297549042495
0.000297549042495
0.000297549042495
0.000297549042495
0.000297549042495
0.000297549042495
0.000297549042495
0.000297549042495
0.000297549042495
0.000297549042495
0.000297549042495
0.000297549042495
0.000297549042495
0.000297549042495
0.000297549042495
0.000297549042495
0.000297549042495
0.000297549042495
0.000297549042495
0.000297549042495
0.000297549042495
0.000297549042495
0.000297549042495
0.000297549042495
0.000297549042495
0.000297549042495
0.000297549042495
0.000297549042495
0.000297549042495
0.000297549042495
0.000297549042495
0.000297549042495
0.000297549042495
0.000297549042495
0.000297549042495
0.000297549042495
0.000297549042495
0.000297549042495
0.000297549042495
0.000297549042495
0.000297549042495
0.000297549042495
0.000297549042495
0.000297549042495
0.000297549042495
0.000297549042495
0.000297549042495
0.000297549042495
0.000297549042495
0.000297549042495
0.000297549042495
0.000297549042495
0.000297549042495
0.000297549042495
0.000297549042495
0.000297549042495
0.000297549042495
0.000297549042495
0.000297549042495
0.000297549042495
0.000297549042495
0.000297549042495
0.000297549042495
0.000297549042495
0.000297549042495
0.000297549042495
0.000297549042495
0.000297549042495
0.000297549042495
0.000297549042495
0.000297549042495
0.000297549042495
0.000297549042495
0.000297549042496
0.000297549042495
0.000297549042495
0.000297549042495
0.000297549042495
0.000297549042495
0.000297549042495
0.000297549042495
0.000297549042495
0.000297549042495
0.000297549042495
0.000297549042495
0.000297549042495
0.000297549042495
0.000297549042495
0.000297549042495
0.000297549042495
0.000297549042495
0.000297549042495
0.000297549042495
0.000297549042495
0.000297549042495
0.000297549042495
0.000297549042495
0.000297549042495
0.000297549042495
0.000297549042495
0.000297549042495
0.000297549042495
0.000297549042495
0.000297549042495
0.000297549042495
0.000297549042495
0.000297549042495
0.000297549042495
0.000297549042495
0.000297549042495
0.000297549042495
0.000297549042495
0.000297549042495
0.000297549042495
0.000297549042495
0.000297549042495
0.000297549042495
0.000297549042495
0.000297549042495
0.000297549042495
0.000297549042495
0.000297549042495
0.000297549042495
0.000297549042495
0.000297549042495
0.000297549042495
0.000297549042495
0.000297549042495
0.000297549042495
0.000297549042495
0.000297549042495
0.000297549042495
0.000297549042495
0.000297549042495
0.000297549042495
0.000297549042495
0.000297549042495
0.000297549042495
0.000297549042495
0.000297549042495
0.000297549042495
0.000297549042495
0.000297549042495
0.000297549042495
0.000297549042495
0.000297549042495
0.000297549042495
0.000297549042495
0.000297549042496
0.000297549042495
0.000297549042495
0.000297549042495
0.000297549042495
0.000297549042495
0.000297549042495
0.000297549042495
0.000297549042495
0.000297549042495
0.000297549042495
0.000297549042495
0.000297549042495
0.000297549042495
0.000297549042495
0.000297549042495
0.000297549042495
0.000297549042495
0.000297549042495
0.000297549042495
0.000297549042495
0.000297549042495
0.000297549042495
0.000297549042495
0.000297549042495
0.000297549042495
0.000297549042495
0.000297549042495
0.000297549042495
0.000297549042495
0.000297549042495
0.000297549042495
0.000297549042495
0.000297549042495
0.000297549042495
0.000297549042495
0.000297549042495
0.000297549042495
0.000297549042495
0.000297549042495
0.000297549042495
0.000297549042495
0.000297549042495
0.000297549042495
0.000297549042495
0.000297549042495
0.000297549042495
0.000297549042495
0.000297549042495
0.000297549042495
0.000297549042495
0.000297549042495
0.000297549042495
0.000297549042495
0.000297549042495