/*--------------------------------*- C++ -*----------------------------------*\
| =========                 |                                                 |
| \\      /  F ield         | OpenFOAM: The Open Source CFD Toolbox           |
|  \\    /   O peration     | Version:  v1706                                 |
|   \\  /    A nd           | Web:      www.OpenFOAM.com                      |
|    \\/     M anipulation  |                                                 |
\*---------------------------------------------------------------------------*/
FoamFile
{
    version     2.0;
    format      ascii;
    class       volScalarField;
    location    "0.014";
    object      Tov;
}
// * * * * * * * * * * * * * * * * * * * * * * * * * * * * * * * * * * * * * //

dimensions      [0 0 0 1 0 0 0];


internalField   nonuniform List<scalar> 
15860
(
139.999999906
139.999999851
139.999999811
139.999999771
139.999999202
139.999997056
139.999993285
139.999989375
139.999984343
139.999984604
139.999843667
139.999276327
139.998702398
139.998966553
139.982337026
139.950277227
140.353122581
148.832346391
167.307626004
183.264369637
366.239236927
1279.27901779
4375.20707353
5237.42363668
5610.45866896
5883.92935177
6152.63091618
6359.00532067
6352.05227167
6242.42904696
6175.67170322
6095.18519177
6098.799951
6094.74447772
6077.02556602
6058.68940639
6043.1980233
6025.8904925
6005.73524171
5982.11676484
5943.66747755
5883.16794515
5782.51062041
5734.7579794
5709.24321854
5661.89400036
5598.66273858
5552.56812731
5516.52793388
5488.23287486
5466.79952069
5449.69871626
5434.60786397
5420.47864251
5404.35107778
5387.45821758
5374.53837671
5363.21268996
5351.66026252
5334.48349683
5290.81517545
5236.34056273
5227.20116813
5216.56933289
5189.0524642
5163.98168603
5146.43459667
5134.09152773
5123.47931143
5114.88209451
5106.94181277
5099.89184349
5092.74002693
5092.19072455
5100.25008536
140
140
140
140
139.999999999
139.999999995
139.999999988
139.99999998
139.999999973
139.99999999
139.999999685
139.999998556
139.999997565
139.99999929
139.999970934
139.999930152
140.002585006
140.028842989
140.078300122
140.133580848
141.112254214
157.544440378
257.889208287
301.830236816
322.202842339
337.964034186
354.604704406
368.410426804
414.538355858
2121.55950284
5291.23545697
6278.24993149
6355.96455805
6380.85699515
6394.23534896
6405.68524236
6413.7514007
6420.70596824
6422.01091287
6423.49929913
6407.51843038
6367.7578905
6236.90403279
6223.82580106
6193.17386705
6152.53592794
6165.71690249
6155.26767427
6139.34425223
6121.65295764
6106.4566781
6090.82284732
6073.97867786
6057.00887528
6036.87306098
6015.74074813
5997.61817133
5980.91525432
5962.38253603
5936.71186529
5878.18386758
5810.69642284
5782.46094588
5759.00788063
5721.15127032
5690.10634746
5666.90810513
5649.17085596
5633.89372001
5621.07075285
5609.22265
5599.10005813
5588.75483846
5583.79496934
5591.85520963
140
140
140
140
140
140
140
140
140
140
140.000000002
140.000000004
140.000000011
140.000000094
140.000000312
140.000000894
140.000013761
140.00009353
140.00022178
140.000403551
140.004213308
140.075131236
140.401755068
140.580555223
140.671341726
140.747423562
140.831137266
140.901571752
141.618443475
176.751250108
305.743582075
362.639833046
367.841436975
369.295751817
369.406219671
369.309079123
369.124565829
369.094262971
369.054853725
369.750815721
369.500842501
417.757311078
2336.15018576
5046.0837939
5850.45701647
6308.73584337
6387.0702497
6420.60489267
6442.53603339
6457.43920938
6470.56065063
6480.08942034
6483.22991995
6483.2237985
6478.41982364
6470.52987131
6461.1486497
6452.34605652
6440.81547141
6423.83918878
6352.06063052
6310.76191609
6273.71001226
6238.00739973
6229.04605401
6236.77518932
6237.97616415
6234.10043091
6230.74583429
6225.05117697
6220.17310716
6214.34735067
6208.78320214
6205.37756638
6207.98692205
140
140
140
140
140
140
140
140
140
140
140
140
140
140.000000001
140.000000002
140.000000008
140.000000082
140.000000372
140.000000754
140.000001535
140.000019589
140.000293188
140.001147152
140.001633683
140.001896027
140.002122263
140.002363565
140.002564323
140.006718771
140.140037659
140.611548527
140.876249019
140.904552622
140.913635947
140.915616243
140.916830467
140.918097839
140.920649237
140.923858149
140.931512769
140.933544686
141.681752477
181.221418009
293.101868544
341.569421364
371.500999004
376.585031727
377.907513828
378.091798284
377.85882182
377.740642698
377.76451074
377.747155003
378.444029253
378.798609333
382.019260191
722.991854204
1488.73860723
2008.74212914
2453.84512549
3150.74446408
5200.07233997
5821.09319666
6238.27188366
6421.33792169
6460.49048212
6483.83743144
6494.35654485
6505.41656415
6509.70280781
6515.69214283
6517.54679708
6521.60439424
6524.09482042
6519.71861674
140
140
140
140
140
140
140
140
140
140
140
140
140
140
140
140
140
140.000000002
140.000000004
140.00000001
140.00000014
140.00000125
140.000003679
140.000005058
140.000005852
140.000006558
140.000007262
140.000007812
140.000031256
140.000492917
140.001742819
140.002451778
140.002548845
140.002595314
140.002623385
140.002648263
140.002672374
140.002699127
140.002727616
140.002766551
140.002780348
140.007325283
140.147584404
140.570974583
140.803674661
140.957736205
140.985487138
140.992704287
140.993849398
140.993308537
140.994023271
140.996155459
140.998706867
141.006129432
141.011313954
141.051145538
144.060921376
155.350801184
167.170496038
179.705391654
205.959931877
302.686237886
340.649894126
368.71071479
381.734485428
384.625216316
386.249481024
386.886051969
387.449397064
387.520953941
387.648015362
387.493365264
387.409147372
387.355387277
387.571932994
140
140
140
140
140
140
140
140
140
140
140
140
140
140
140
140
140
140
140
140
140.000000001
140.000000008
140.000000018
140.000000022
140.000000025
140.000000027
140.00000003
140.000000034
140.00000018
140.000001819
140.000005266
140.000007178
140.000007506
140.00000773
140.000007907
140.00000807
140.000008226
140.000008383
140.000008545
140.000008725
140.0000087
140.000033248
140.000492356
140.001653105
140.002308742
140.002749695
140.002850413
140.002893303
140.002918066
140.002936532
140.002957178
140.002980385
140.003004069
140.003039932
140.003067894
140.003340538
140.012947456
140.046335035
140.083004114
140.124731077
140.22142141
140.619220739
140.806234688
140.954090725
141.025527801
141.04198499
141.051328315
141.055238237
141.058565232
141.05921016
141.059997652
141.05925072
141.058649954
141.058424534
141.061038668
140
140
140
140
140
140
140
140
140
140
140
140
140
140
140
140
140
140
140
140
140
140
140.000000001
140
140
140
140
140
140.000000001
140.000000009
140.000000021
140.000000027
140.000000028
140.000000029
140.00000003
140.000000031
140.000000032
140.000000033
140.000000034
140.000000035
140.000000037
140.000000179
140.000001725
140.000004991
140.000006828
140.000008121
140.0000085
140.00000872
140.000008884
140.000009022
140.00000916
140.000009298
140.000009433
140.000009596
140.00000972
140.000011065
140.000041383
140.000136498
140.000241559
140.000364469
140.000661424
140.001796245
140.002336414
140.002767133
140.002982867
140.00304169
140.00307958
140.003100162
140.003119056
140.003128359
140.003138152
140.003141737
140.003145986
140.003149632
140.003156783
140
140
140
140
140
140
140
140
140
140
140
140
140
140
140
140
140
140
140
140
140
140
140
140
140
140
140
140
140
140
140
140
140
140
140
140.000000001
140.000000001
140.000000001
140
140
140
140.000000001
140.000000008
140.000000019
140.000000025
140.000000029
140.000000031
140.000000032
140.000000033
140.000000034
140.000000035
140.000000036
140.000000036
140.000000037
140.000000038
140.000000047
140.000000149
140.000000427
140.000000731
140.000001105
140.000002071
140.000005455
140.000007048
140.000008345
140.000009027
140.000009252
140.00000941
140.000009512
140.000009605
140.000009665
140.000009724
140.000009761
140.000009798
140.000009824
140.000009838
140
140
140
140
140
140
140
140
140
140
140
140
140
140
140
140
140
140
140
140
140
140
140.000000001
140
140
140
140
140
140
140
140
140
140
140
140
140
140
140
140
140
140
140
140
140
140
140
140
140
140
140
140
140
140
140
140
140
140.000000001
140.000000002
140.000000003
140.000000004
140.000000008
140.00000002
140.000000025
140.00000003
140.000000032
140.000000033
140.000000034
140.000000034
140.000000034
140.000000035
140.000000035
140.000000036
140.000000036
140.000000036
140.000000036
140
140
140
140
140
140
140
140
140
140
140
140
140
140
140
140
140
140
140
140
140
140
140
140
140
140
140
140
140
140
140
140
140
140
140
140
140
140
140
140
140
140
140
140
140
140
140
140
140
140
140
140
140
140
140
140
140
140
140
140
140
140
140
140
140
140
140
140
140
140
140
140
140
140
140
140
140
140
140
140
140
140
140
140
140
140
140
140
140
140
140
140
140
140
140
140
140
140
140
140
140
140
140
140
140
140
140
140
140
140
140
140
140
140
140
140
140
140
140
140
140
140
140
140
140
140
140
140
140
140
140
140
140
140
140
140
140
140
140
140
140
140
140
140
140
140
140
140
140
140
140
140
140
140
140
140
140
140
140
140
140
140
140
140
140
140
140
140
140
140
140
140
140
140
140
140
140
140
140
140
140
140
140
140
140
140
140
140
140
140
140
140
140
140
140
140
140
140
140
140
140
140
140
140
140
140
140
140
140
140
140
140
140
140
140
140
140
140
140
140
140
140
140
140
140
140
140
140
140
140
140
140
140
140
140
140
140
140
140
140
140
140
140
140
140
140
140
140
140.000000001
140
140
140
140
140
140
140
140
140
140
140
140
140
140
140
140
140
140
140
140
140
140
140
140
140
140
140
140
140
140
140
140
140
140.000000001
140
140
140
140
140
140
140
140
140
140
140
140
140
140
140
140
140
140
140
140
140
140
140
140
140
140
140
140
140
140
140
140
140
140
140
140
140
140
140
140
140.000000001
140
140
140
140
140
140
140
140
140
140
140
140
140
140
140
140
140
140
140
140
140
140
140
140
140
140
140
140
140
140
140
140
140
140.000000001
140
140
140
140
140
140
140
140
140
140
140
140
140
140
140
140
140
140
140
140
140
140
140
140
140
140
140
140
140
140
140
140
140
140
140
140
140
140
140
140
140.000000001
140
140
140
140
140
140
140
140
140
140
140
140
140
140
140
140
140
140
140
140
140
140
140
140
140
140
140
140
140
140
139.999999999
140
140
140.000000001
140
140
140
140
140
140
140
140
140
140
140
140
140
140
140
140
140
140
140
140
140
140
140
140
140
140
140
140
140
140
140
140
140
140
140
140
140
140
140
140
140.000000001
140
140
140
140
140
140
140
140
140
140
140
140
140
140
140
140
140
140
140
140
140
140
140
140
140
140
140
140
140
140
139.999999999
140
140
140
140
140
140
140
140
140
140
140
140
140
140
140
140
140
140
140
140
140
140
140
140
140
140
140
140
140
140
140
140
140
140
140
140
140
140
140
140
140
140
140
140
140
140
140
140
140
140
140
140
140
140
140
140
140
140
140
140.000000001
140
140
140
140
140
140
140
140
140
140
140
140
140
140
139.999999999
140
140
140
140
140
140
140
140
140
140
140
140
140
140
139.999999999
140
140
140
140
140
140
140
140
140
140
140
140
140
140
140
140
140
140
140
140
140
140
140
140
140
140
140
140
140
140
140
140
140
140
140
140
140
140
140
140
140
140
140
140
140
140
140
140
140
140
140
140
140
140
140
140
140
140
140
140
140
140
140
140
140
140
140
140
140
140
140
140
140
140
140
140
140
140
140
140
140
140
140
140
140
140
140
140
140
140
140
140
140
140
140
140
140
140
140
140
140
140
140
140
140
140
140
140
140
140
140
140
140
140
140
140
140
140
140
140
140.000000001
140
140
140
140
140
140
140
140
140
140
140
140
140
140
140
140
140
140
140
140
140
140
140
140
140
140
140
140
140
140
140
140
140
140
140
140
140
140
139.999999999
140
140
140
140
140
140
140
140
140
140
140
140
140
140
140
140
140
140
140
140
140
140
140
140
140
140
140
140
140
140
140
140
140
140
140
140.000000001
140
140
140
140
140
140
140
140
140
140
140
140
140
140
140
140
140
140
140
140
140
140
140
139.999999999
139.999999999
140
140
140
140
140
140
140
140
140
140
140
140
140
140
140
140
140
140
140
140
140
140
140
140
140
140
140
140
140
140
140
140
140
140
140
140
140
140.000000001
140
140
140
140
140
140
140
140
140
140
140
140.000000001
140
140
140
140
140
140
140
140
140
140
140
140
140
140
140
140
140
140
140
140
140
140
140
139.999999999
139.999999999
140
140
140
140
140
140
140
140
140
140
140
140
140
140
140
140
140
140
140
140
140
140
140
140
140
140
140
140
140
140
140
140
140
140
140
140
140
140
140
140
140
140
140
140
140
140
140
140
140
140
140
140
140
140
140
140
140
140
140
140
140
140
140
140
140
140
140
140
140
140
140
140
140
140
140
140
140
140
140
140
140
140
140
140
140
140
140
140
140
140
140
140
140
140
140
140
140
140
140
140
140
140
140
140
140
140
140
140
140
140
140
140
140
140
140
140
140
140
140
140
140
140
140
140
140
140
140
140
140
140
140
140
140
140
140
140
140
140
140
140
140
140
140
140
140
140
140
140
140
140
140
140
140
140
140
140
140
140
140
140
140
140
140
140
140
140
140
140
140
140
140
140
140
140
140
140
140
140
140
140
140
140
140
140
140
140
140
140
140
140
140
140
140
140
140
140
140
140
140
140
140
140
140
140
140
140
140
140
140
140
140
140
140
140
140
140
140
140
140
140
140
140
140
140
140
140
140
140
140
140
140
140
140
140
140
140
140
140
140
140
140
140
140
140
140
140
140
140
140
140
140
140
140
140
140
140
140
140
140
140
140
140
140
140
140
140
140
140
140
140
140
140
140
140
140
140
140
140
140
140
140
140
140
140
140
140
140
140
140
140
140
140
140
140
140
140
140
140
140
140
140
140
140
140
140
140
140
140
140
140
140
140
140
140
140
140
140
140
140
140
140
140
140
140
140
140
140
140
140
140
140
140
140
140
140
140
140
140
140
140
140
140
140
140
140
140
140
140
140
140
140
140
140
140
140
140
140
140
140
140
140
140
140
140
140
140
140
140
140
140
140
140
140
140
140
140
140
140
140
140
140
140
140
140
139.999986714
139.999503601
140.002407757
145.594375447
561.01610699
5263.72985868
6089.78325054
5744.37718286
5335.4678987
4977.94906267
4709.88104785
4522.02695301
4379.79505856
4262.18395645
4159.96481937
4067.4645238
3981.10140467
3901.96418176
3828.00311763
3758.93791321
3696.87798081
3644.45710604
3596.98565415
3551.1690123
3501.54679745
3442.30698692
3370.8199812
3284.55259163
3177.44963585
3041.54773687
2871.84081104
2663.45517345
2410.17984361
2105.93516409
1733.54995477
139.999979263
139.999128689
140.001591373
148.463018624
685.621195072
6009.60865497
6062.71687818
5707.05033895
5287.42087577
4943.6663451
4689.68994988
4511.23871092
4374.09533396
4260.22857805
4160.28488882
4068.75444683
3982.42103384
3903.5042304
3828.775266
3759.25416963
3696.62393232
3643.85369808
3596.2452839
3550.68161188
3501.78079925
3444.11539864
3374.55858509
3290.33476611
3185.26627292
3051.38389578
2883.31470536
2675.9056099
2422.39660043
2116.04437929
1738.58025325
139.999973718
139.998829369
139.997519528
150.19889781
751.068656614
6353.16645166
6035.38564984
5661.07550673
5242.06086526
4921.42325625
4682.83851128
4510.48939696
4373.18059073
4260.28393044
4163.55490439
4073.26269667
3984.94085194
3904.91975016
3829.44117493
3759.23028119
3696.02803467
3642.97619478
3595.52074455
3550.38269061
3502.2900382
3445.69154319
3377.53270481
3294.87749975
3191.52862921
3059.3028517
2892.62840045
2686.08661471
2432.44451173
2124.2971588
1742.61388845
139.999971679
139.998810083
140.008724893
151.557885398
779.690408416
6390.21721388
6035.05378445
5611.1615019
5199.30517954
4897.93708239
4676.4484135
4510.67259074
4374.22488359
4260.32795073
4164.19661695
4075.13736481
3987.01300199
3906.08439097
3830.00340015
3759.16343687
3695.59277708
3642.4102713
3595.27869768
3550.55853222
3503.16760488
3447.37228269
3380.12350572
3298.46732941
3196.25745366
3065.23762291
2899.40912771
2693.09632114
2438.89946993
2129.31963514
1744.95050929
139.999929659
139.997936748
140.457739371
209.640311573
1924.03315997
6360.11021362
5987.27696595
5569.92262136
5175.33817197
4880.83720162
4663.11374722
4504.37650928
4372.07279233
4259.63757302
4163.23679814
4074.92237726
3987.84405856
3907.01193768
3830.44789545
3758.94905088
3695.43019677
3642.42014088
3595.84368182
3551.76337669
3505.00636881
3449.73757053
3382.9960844
3302.00587655
3200.66305448
3070.67147413
2905.78429912
2699.94261327
2445.2985636
2134.22772115
1747.15083147
139.999681623
139.991939535
142.636876651
382.378472288
3693.31074635
6303.83622261
5931.25591841
5527.84226523
5161.96746722
4870.33486235
4653.59549798
4495.30759497
4366.48083768
4258.08555583
4163.73059933
4075.55464019
3988.98118277
3908.33507368
3832.34046408
3759.55884586
3696.72413921
3644.26756464
3598.44124545
3554.68593349
3508.02810814
3452.81448779
3386.1547605
3305.33087113
3204.35873587
3074.81237868
2910.52788734
2705.04381001
2450.37457572
2138.26891475
1749.04446263
139.999098879
139.974552816
146.743361755
587.621882319
5102.94906258
6283.86702673
5908.94112263
5495.15314789
5138.51104129
4854.22666014
4643.4616451
4486.95163118
4361.02046964
4255.61764106
4164.02129124
4076.85547713
3991.96475457
3911.56692449
3835.33353613
3762.49103046
3699.34640088
3647.20096373
3601.58294525
3557.96421837
3511.40356737
3456.14137784
3389.25597097
3308.12271529
3206.98408145
3077.14778727
2912.69488282
2706.93995331
2452.22907081
2139.83474285
1749.89848958
139.998467796
139.95680484
150.585606676
728.418999198
5854.81851517
6260.38056011
5885.23785347
5457.51097389
5108.01925332
4831.64700923
4628.71137028
4477.13114816
4355.55468189
4253.78209554
4164.69717635
4078.35636168
3993.95376711
3913.26129514
3836.25527469
3763.34338379
3700.52190286
3648.97350457
3603.94654111
3560.60654052
3514.1112803
3458.60551025
3391.26160375
3309.49614896
3207.68115586
3077.21104761
2912.24741998
2706.07382721
2451.06618994
2138.67907828
1749.25380484
139.997523397
139.926772662
155.267771113
871.272275503
6515.67857513
6185.44238894
5828.35775485
5396.31036381
5065.64145703
4808.06475527
4618.77976565
4470.49401892
4351.30666857
4251.95697949
4164.97643889
4078.13461986
3992.75822713
3910.89359838
3833.82998685
3761.25490296
3699.86939279
3649.53366286
3605.37740428
3562.61516878
3516.31014782
3460.71747583
3393.04280743
3310.91115967
3208.72280966
3077.9156222
2912.57041127
2706.04064261
2450.63303339
2138.04821459
1748.80622677
139.997750571
139.985322773
159.192744598
933.673479884
6579.28699963
6170.24823181
5758.02048465
5339.2371779
5022.95049395
4788.37543999
4609.31181587
4466.33745202
4347.25307457
4250.02595391
4162.99215222
4077.33550519
3989.98304645
3907.79561407
3830.1034015
3758.7021413
3698.54138824
3649.46610721
3606.1566682
3564.1737234
3518.30236915
3462.85018631
3395.06793141
3312.89453925
3210.78700807
3080.1446862
2914.86256815
2708.29559586
2452.64016608
2139.54931062
1749.45301945
139.982745203
142.046442672
337.1021385
3104.09388503
6493.83957455
6094.92134316
5670.55279039
5300.63171025
5000.16117583
4767.42842955
4590.11092963
4454.37414107
4343.62523437
4248.03542046
4161.01783582
4074.31272558
3987.74173332
3904.44909961
3827.09826671
3756.71135545
3697.92106751
3650.01080024
3607.84947676
3566.46493815
3520.78393737
3465.01592864
3396.72187892
3313.88366251
3211.26407477
3080.27348518
2914.87662413
2708.26738777
2452.54750334
2139.4096254
1749.34387923
139.901459937
150.770519783
709.426813373
5457.00176781
6415.81595647
6038.08365345
5590.27674424
5231.55922758
4968.34341113
4751.55991074
4576.14319092
4442.34396825
4335.75750226
4246.61366453
4159.85734285
4072.86419923
3985.04982879
3902.59645239
3825.16424503
3756.05463925
3698.52573939
3651.96006843
3610.43815722
3569.30536353
3523.42251952
3467.33373297
3398.64228011
3315.64124691
3212.9768498
3082.04495921
2916.69013743
2710.16513558
2454.412597
2140.95611614
1750.06223329
139.819648777
158.608377123
925.477745917
6420.40719206
6313.38944258
5973.31243357
5531.15838791
5169.3713153
4919.96293583
4728.79525381
4568.40914454
4435.81496191
4332.06465134
4243.49941727
4159.26973908
4070.77790748
3983.87287456
3900.94618881
3824.01838132
3755.62241662
3699.34067138
3653.45900071
3612.42189967
3571.39278469
3525.31871767
3468.73903551
3399.36724875
3315.74906243
3212.75420627
3081.65705684
2916.23108283
2709.62610889
2453.7315618
2140.23447179
1749.61076346
140.091699766
172.926834931
1122.48275348
6701.72489495
6236.5087568
5847.30571113
5446.99516038
5117.2192061
4881.51560774
4703.04251553
4552.8981851
4429.23854151
4324.90597626
4239.10144267
4154.73853199
4068.71256743
3980.44864487
3897.7421124
3821.66821783
3754.54178594
3699.25226123
3653.99340712
3613.292964
3572.48678272
3526.43819472
3469.80237643
3400.3864313
3316.76701013
3213.93253731
3083.03555799
2918.03034869
2711.79292844
2456.16314102
2142.39243631
1750.71913055
150.600968827
565.949352079
4475.10041186
6569.28506617
6141.56675737
5728.8759632
5374.46161352
5080.1978987
4854.71110576
4679.48899874
4534.43073105
4416.93856954
4319.74587899
4233.82158296
4150.3028404
4064.53740884
3977.77288167
3894.97526148
3820.34511155
3754.29039569
3700.05161612
3655.4689791
3615.21837262
3574.374447
3528.00480678
3470.85842313
3400.95082135
3316.98673044
3214.09843535
3083.16847084
2918.19378074
2711.83558998
2456.04478392
2142.13958234
1750.53969978
172.665115215
974.4876234
6343.25825167
6462.47696041
6059.75196557
5629.72351192
5299.73092663
5035.39484287
4824.64780696
4652.46771427
4514.57938326
4405.02700961
4313.9761555
4228.19539423
4146.63129102
4061.4170052
3975.25330002
3893.36199099
3819.47179265
3754.56889738
3701.01603356
3657.03840795
3616.89082983
3575.94841703
3529.30740803
3471.94885743
3401.8848051
3318.0389091
3215.43812206
3084.90626847
2920.43722806
2714.52252519
2458.91942953
2144.61524014
1751.77052568
200.084127543
1213.77993627
6797.24393764
6369.7680724
5931.71364183
5508.48585024
5216.72240395
4988.58620449
4796.65969514
4630.61250135
4497.83736487
4398.41755313
4309.4790781
4225.90514845
4144.33095358
4060.14790619
3973.59863015
3892.49712156
3820.01424853
3756.49867364
3704.14457851
3660.45372299
3620.12257676
3578.68975935
3531.56618219
3473.76540771
3403.34170744
3319.32855916
3216.64548965
3086.00002614
2921.43410558
2715.35692863
2459.62357442
2145.1605882
1752.06352233
750.910656093
4344.88012715
6639.93296863
6259.74259574
5826.9417483
5434.03495079
5160.72213125
4946.45351192
4766.57790679
4609.55504598
4489.51740191
4392.29994401
4306.37298888
4224.29777568
4143.69722717
4058.32636005
3971.78813735
3891.57125927
3820.78181988
3759.06301536
3707.67128621
3663.79436933
3622.80893959
3580.58978837
3532.75328646
3474.36780342
3403.54558216
3319.40371634
3216.73005131
3085.99453706
2921.25563418
2714.97585647
2459.03229427
2144.51672799
1751.65981197
1361.54026118
6376.56072853
6572.41625474
6178.24150325
5740.88367251
5378.98146339
5106.15295082
4899.40525971
4733.52563568
4597.22271711
4485.3385555
4391.00184437
4306.12836549
4225.30805586
4143.98755435
4057.801858
3971.02501901
3892.64784012
3825.21519933
3765.43187217
3713.86748136
3669.12002757
3626.89062284
3583.85553309
3535.39044528
3476.66234854
3405.36967843
3320.86033227
3217.63286979
3086.36355881
2921.0325892
2714.41833732
2458.14544334
2143.6679942
1751.16450221
1646.95195388
6920.69680679
6465.46541865
6048.01351401
5621.13292094
5294.91998955
5048.71487741
4865.67714093
4720.23409956
4597.17952889
4493.68188838
4404.24664401
4322.50959485
4239.61724307
4154.98158895
4065.20177028
3978.61453218
3901.92504618
3834.83654421
3774.10509984
3720.64946034
3674.37654245
3630.76506985
3586.73420811
3537.484187
3478.09801127
3406.1384006
3320.92833924
3217.04722837
3084.93326505
2918.74608171
2711.46151783
2454.79762275
2140.5852965
1749.44935749
3804.10394949
6776.82605093
6301.14884013
5883.42528284
5492.6265388
5219.35341849
5011.94695542
4857.18668796
4723.15091863
4610.92180756
4513.32017016
4421.98667998
4336.74698058
4250.03033812
4161.47239012
4069.55345547
3982.5161883
3906.46947688
3839.72461589
3778.53356185
3724.72715183
3677.62854728
3633.54003029
3589.03599236
3539.61271093
3480.01832678
3407.7010251
3321.83246575
3216.98885773
3083.75795579
2916.57055152
2708.49159847
2451.37985221
2137.32159094
1747.57503133
5900.54926791
6402.63483773
6073.45187871
5705.87301247
5392.96477692
5169.43077597
4986.34831533
4856.10578995
4734.72496984
4622.46027319
4516.83900402
4420.60919299
4328.70255202
4236.15339961
4144.51057311
4055.76736974
3975.34103268
3904.84425769
3841.2873641
3781.44309283
3728.25218763
3681.35773451
3637.72183187
3593.73493805
3544.83022903
3485.66280737
3413.60270053
3327.68624015
3222.27450076
3087.7720613
2918.93683473
2709.17602267
2450.68793579
2135.92827661
1746.50701637
6550.20415716
6264.89879206
5904.57871635
5572.07040319
5329.20932191
5124.55261996
4972.2108077
4837.41729363
4719.16406097
4607.78666695
4501.8308069
4405.50505337
4309.38086245
4216.98304989
4128.6143529
4046.79854855
3971.57488789
3904.33359697
3842.66653966
3783.77518275
3731.1420717
3685.01207665
3642.26378255
3599.18686656
3551.13291337
3492.58891291
3420.80202277
3334.8711016
3229.03208778
3093.67740984
2923.39155704
2711.73898353
2451.38246515
2135.42861963
1745.81376365
6631.38980166
6311.26018607
5913.11129012
5582.52652887
5322.52809287
5124.40406268
4968.84104995
4837.32504036
4719.36133172
4604.6823089
4497.58605648
4395.86096779
4299.58285558
4206.33261168
4121.95763253
4045.09544889
3973.65684217
3908.20789645
3846.44164003
3787.05206411
3734.27733554
3688.50904911
3646.50935551
3604.24425934
3557.00779534
3499.16550448
3427.93279146
3342.38742914
3236.69550898
3101.2640144
2930.70099594
2718.54641297
2457.26950613
2139.76687822
1747.73061854
6648.15549769
6315.37215401
5909.70463315
5573.60676246
5315.33119794
5124.32453749
4969.89376255
4840.06519374
4719.27904236
4603.39551465
4489.79161256
4384.46645904
4284.70556268
4195.53271193
4117.83736081
4045.63435548
3975.85001813
3910.40810911
3847.38252258
3787.33749363
3734.20997529
3688.63770983
3647.14575973
3605.68423116
3559.16759907
3501.81566903
3430.79129885
3345.1544882
3238.89115372
3102.68252791
2931.12707361
2718.02945447
2455.97740682
2138.19621854
1746.70258022
6620.03504552
6288.02671125
5881.01971241
5553.05147933
5305.69572543
5120.00353067
4968.83733727
4836.47541839
4713.96302594
4591.61846295
4473.77640717
4365.59088459
4270.01418334
4188.03471731
4116.08915842
4045.85476069
3977.2203626
3911.28445243
3847.91272411
3787.28712269
3734.46809145
3689.62551293
3649.2353706
3608.56619841
3562.7953481
3505.85317251
3435.12668951
3349.60808106
3243.20371006
3106.60301705
2934.36564914
2720.24362802
2457.03919086
2138.33966077
1746.45697692
6511.099244
6200.54681322
5816.79419823
5514.90117373
5282.6185098
5103.8593524
4954.39533006
4822.03539846
4694.10144726
4567.48315532
4448.47879438
4346.05265314
4259.34770289
4185.02552274
4116.85364451
4048.11890852
3978.80600509
3911.55189468
3846.91885136
3785.79871029
3733.16404123
3689.15465427
3649.69216551
3610.08238131
3565.14829752
3508.63935532
3437.94213463
3352.09489909
3244.92662297
3107.47496557
2934.29825588
2719.48159241
2455.79619337
2137.02666175
1745.65315126
6306.59713067
6055.56630235
5731.38192529
5461.90112965
5248.08557902
5074.93665881
4926.03459397
4788.8150991
4659.05111437
4534.77733921
4424.30934155
4332.3367369
4253.93980985
4183.71492843
4116.738969
4048.44333563
3979.00544633
3911.12511652
3845.57898503
3784.30284482
3732.35058658
3689.29753832
3650.94579624
3612.16563513
3567.76545614
3511.39229495
3440.5899003
3354.36612954
3246.26902116
3108.00383283
2933.93266741
2718.65459906
2454.61740453
2135.92962355
1745.03111884
6215.92775342
5964.70237707
5664.47433818
5409.85062581
5205.7128114
5036.01376893
4884.19726595
4749.63754565
4626.0955359
4512.35102069
4412.44035074
4327.98703772
4253.83939986
4185.89290592
4120.050569
4051.54994485
3980.49062249
3911.0437462
3844.47538544
3783.21138345
3731.98080786
3689.90966105
3652.42902187
3614.30745184
3570.25123794
3513.98458187
3442.98852524
3356.40977629
3247.46784233
3108.40676032
2933.29759684
2717.29014572
2452.74503865
2134.18117977
1744.06266977
6052.71757683
5822.08187118
5560.27853044
5326.61471025
5133.45465014
4968.55187739
4832.56752944
4711.44064266
4601.8341696
4499.09256291
4406.88429462
4326.53431276
4254.99273502
4188.59565808
4122.95781204
4053.49389437
3981.38362804
3910.22487293
3843.19877219
3782.15855305
3731.53158034
3690.17584655
3653.33100148
3615.68674475
3571.65591893
3515.16266902
3443.558575
3356.42189228
3246.55299071
3106.74638744
2930.67879766
2714.15613504
2449.33259425
2131.27744538
1742.58276952
5932.38695839
5692.98922767
5456.1646866
5240.78652586
5073.18021549
4928.44240551
4803.49804838
4691.77010642
4589.45843466
4493.26910492
4406.00893202
4329.25831372
4259.217014
4192.44738648
4125.55718868
4055.10263026
3981.20406804
3909.12955158
3841.74999901
3781.53570194
3731.96601744
3691.59439404
3655.21995605
3617.76812467
3573.651213
3517.22704149
3445.1923927
3357.51696884
3246.3520688
3105.53563617
2928.00862018
2710.50377024
2445.02840062
2127.46904866
1740.57997679
5851.51813378
5607.57628914
5389.14628949
5191.33873947
5033.03885627
4896.91887815
4780.11453545
4675.33292982
4579.14176556
4487.61798083
4403.58063228
4328.22289824
4258.8366933
4192.03567944
4124.86157463
4053.44471562
3978.35662679
3906.14552536
3839.56435193
3780.3966901
3731.69040488
3691.81542614
3655.85137766
3618.48296183
3574.14294437
3517.31263831
3444.69491213
3356.40936795
3244.10416144
3102.26693503
2923.41466956
2705.07543155
2439.20898428
2122.43272164
1737.99953573
5787.14189826
5556.24415198
5339.40645755
5155.16066415
5004.57391799
4877.50592367
4766.89985644
4668.06616872
4576.24622296
4487.80602893
4405.45307558
4331.05433921
4261.71209483
4194.24378959
4125.6237576
4052.4222022
3976.68795912
3904.08157119
3838.69540784
3781.00962826
3733.64570087
3694.49447765
3658.77720469
3621.30177156
3576.67880608
3519.36884455
3445.89428547
3356.72525697
3243.02690189
3100.16237828
2919.80402011
2700.33294997
2433.73771995
2117.54638559
1735.4333138
5715.43785812
5497.81083575
5293.62083686
5122.27068217
4981.49961609
4862.75596902
4757.94552477
4663.38567168
4574.59325646
4488.19134569
4407.08595278
4332.83403672
4262.83108058
4194.34612958
4123.77800091