/*--------------------------------*- C++ -*----------------------------------*\
| =========                 |                                                 |
| \\      /  F ield         | OpenFOAM: The Open Source CFD Toolbox           |
|  \\    /   O peration     | Version:  v1706                                 |
|   \\  /    A nd           | Web:      www.OpenFOAM.com                      |
|    \\/     M anipulation  |                                                 |
\*---------------------------------------------------------------------------*/
FoamFile
{
    version     2.0;
    format      ascii;
    class       volScalarField;
    location    "0.014";
    object      Tt;
}
// * * * * * * * * * * * * * * * * * * * * * * * * * * * * * * * * * * * * * //

dimensions      [0 0 0 1 0 0 0];


internalField   nonuniform List<scalar> 
15860
(
139.999999905
139.999999851
139.99999981
139.99999977
139.999999197
139.99999704
139.999993249
139.999989319
139.999984258
139.999984513
139.999842828
139.999272915
139.998696576
139.99894791
139.982133013
139.949641876
140.350022687
148.762057635
166.97745056
182.521505468
372.621312268
1502.93377438
6459.29188261
7688.81779358
7930.53513218
8062.93503034
8152.27686846
8048.19050525
7638.03919242
7146.29482474
6617.82069052
6351.74820383
6305.25842499
6248.38747194
6199.21627116
6160.22913504
6129.70222879
6103.58286485
6078.80566871
6041.69554178
5983.81361607
5905.67869664
5787.02333005
5699.80735006
5661.15104209
5602.78219244
5526.93967111
5474.44091906
5434.52855676
5404.21761409
5382.03193465
5365.03900944
5350.71069966
5344.83256249
5335.10101625
5323.12699422
5313.46637166
5304.93973197
5295.38255523
5280.01636864
5241.82142337
5193.00697607
5187.34707025
5178.68376013
5153.1048417
5129.40716145
5112.7611695
5101.33130555
5091.23373713
5083.23577635
5075.71199424
5069.1604216
5062.31319572
5061.72681548
5070.27061268
140
140
140
140
139.999999999
139.999999995
139.999999988
139.99999998
139.999999973
139.99999999
139.999999684
139.999998549
139.999997553
139.999999254
139.999970563
139.999928936
140.002576563
140.028710619
140.077768662
140.132291454
141.102796477
157.263712465
256.458622727
298.73367634
316.810673576
331.115186569
346.893521493
360.306633751
410.911875804
2740.81182606
7939.95750371
9260.49427511
9094.13633738
8868.18826656
8606.49846151
8364.47116465
8148.67059616
7961.63621045
7796.74765419
7634.02615633
7479.67206321
7289.66408063
6983.21162783
6706.26611359
6555.25916244
6410.82640478
6366.22626986
6314.57714791
6269.12722487
6233.27058732
6206.69347226
6185.43645879
6163.8692413
6126.71959722
6088.47565301
6052.73146827
6023.9639228
5996.94730591
5970.54815251
5938.97333162
5878.85721273
5776.59074475
5739.06780645
5708.07748855
5661.45378313
5623.63843704
5595.64892027
5575.2915859
5557.2549599
5542.98247212
5529.53281629
5518.63966785
5507.16802608
5501.374786
5511.3268819
140
140
140
140
140
140
140
140
140
140
140.000000002
140.000000004
140.000000011
140.000000095
140.000000313
140.000000897
140.000013751
140.000093362
140.000221086
140.000401655
140.004192683
140.07433271
140.395522401
140.567580392
140.652639422
140.724128862
140.803342475
140.870186317
141.573218041
175.822888242
304.510041874
361.858072698
365.250221594
364.946927486
363.141934752
361.341519546
359.71620336
358.513804684
357.560110232
357.753714018
357.116900966
410.625093341
3069.96135827
7585.57498351
8852.34738245
9337.47195628
9138.54680926
8871.01913601
8597.2415076
8351.96286288
8143.92913599
7974.34892939
7828.80648514
7711.78161862
7605.53987471
7511.27164776
7433.77682318
7357.64341888
7287.80470999
7209.85768322
7079.82461694
6811.59101619
6677.5224275
6562.61290639
6497.97662098
6473.8968994
6449.70312745
6427.90554414
6407.97814284
6390.72538915
6374.61345227
6361.2169976
6347.36758336
6338.37254478
6346.79852361
140
140
140
140
140
140
140
140
140
140
140
140
140
140.000000001
140.000000003
140.000000008
140.000000082
140.000000373
140.000000754
140.000001535
140.000019545
140.000291169
140.00113577
140.001610436
140.001862806
140.002081108
140.002314855
140.002509994
140.0066215
140.138053532
140.599976801
140.855409866
140.879950959
140.886229924
140.885592744
140.884557137
140.883943949
140.884913788
140.886853696
140.893538115
140.895011384
141.623568157
179.927276779
292.024469095
341.752845948
371.497206302
374.535577876
373.674785263
371.793632649
369.818460354
368.303955048
367.274536185
366.472176661
366.874774333
366.978071648
370.282708962
767.109529119
1792.10427653
2560.87668943
3252.1325624
4382.93393919
7864.15614243
8877.94596668
9452.6781878
9576.71599515
9488.14942598
9384.1335298
9282.07945942
9180.25422561
9090.30884644
9000.97497944
8926.14960302
8845.36085982
8790.48913382
8837.13532805
140
140
140
140
140
140
140
140
140
140
140
140
140
140
140
140
140
140.000000002
140.000000004
140.00000001
140.00000014
140.000001247
140.000003662
140.000005019
140.000005794
140.000006485
140.000007176
140.000007714
140.000031008
140.000488157
140.001721224
140.002414263
140.002504539
140.002545914
140.002569245
140.002590021
140.002610661
140.002634454
140.002660512
140.002697548
140.002710265
140.007186159
140.145292523
140.561055121
140.787673082
140.934944249
140.958286581
140.961942556
140.960088974
140.957155836
140.955935625
140.95655066
140.95794733
140.964628168
140.969182784
141.00722754
143.918576834
154.789046172
166.190898363
178.360418769
204.213605397
302.160364827
341.398869921
370.267987084
382.935652784
384.899259045
385.613888797
385.440504901
385.203679737
384.597457229
384.054278871
383.346618441
382.671914476
382.222285619
382.789103398
140
140
140
140
140
140
140
140
140
140
140
140
140
140
140
140
140
140
140
140
140.000000001
140.000000008
140.000000018
140.000000022
140.000000025
140.000000027
140.00000003
140.000000034
140.00000018
140.00000181
140.000005229
140.000007114
140.000007428
140.000007641
140.000007809
140.000007963
140.000008111
140.000008262
140.000008418
140.000008594
140.000008565
140.000032877
140.000487284
140.001633971
140.002278175
140.002706739
140.002799274
140.002835562
140.002854772
140.002868775
140.002885782
140.002906089
140.002927515
140.002961838
140.002988243
140.003253466
140.012704779
140.045539548
140.08161243
140.122675039
140.217904619
140.608571078
140.791027415
140.934039465
141.001567385
141.015684853
141.023088436
141.025508432
141.027407523
141.026963929
141.026677465
141.025121879
141.023652693
141.022841483
141.02587493
140
140
140
140
140
140
140
140
140
140
140
140
140
140
140
140
140
140
140
140
140
140.000000001
140.000000001
140
140
140
140
140
140.000000001
140.000000009
140.000000021
140.000000027
140.000000028
140.000000029
140.00000003
140.000000031
140.000000032
140.000000033
140.000000034
140.000000035
140.000000037
140.000000179
140.000001716
140.000004959
140.000006776
140.000008046
140.000008408
140.000008615
140.000008767
140.000008895
140.000009025
140.000009156
140.000009286
140.000009445
140.000009563
140.000010881
140.000040878
140.000134886
140.000238759
140.000360295
140.000654207
140.001775417
140.00230681
140.002728399
140.002936766
140.002991063
140.003025261
140.003042992
140.003059175
140.003066393
140.003074148
140.003076184
140.003078791
140.003081319
140.003089199
140
140
140
140
140
140
140
140
140
140
140
140
140
140
140
140
140
140
140
140
140
140
140
140
140
140
140
140
140
140
140
140
140
140
140
140.000000001
140.000000001
140.000000001
140
140
140
140.000000001
140.000000008
140.000000019
140.000000025
140.000000029
140.000000031
140.000000032
140.000000033
140.000000034
140.000000034
140.000000035
140.000000036
140.000000037
140.000000038
140.000000047
140.000000149
140.000000424
140.000000726
140.000001098
140.000002058
140.000005419
140.000006995
140.000008275
140.000008942
140.000009157
140.000009307
140.000009403
140.00000949
140.000009546
140.0000096
140.000009633
140.000009667
140.00000969
140.000009706
140
140
140
140
140
140
140
140
140
140
140
140
140
140
140
140
140
140
140
140
140
140.000000001
140.000000001
140
140
140
140
140
140
140
140
140
140
140
140
140
140
140
140
140
140
140
140
140
140
140
140
140
140
140
140
140
140
140
140
140
140.000000001
140.000000002
140.000000003
140.000000004
140.000000008
140.00000002
140.000000025
140.00000003
140.000000032
140.000000033
140.000000034
140.000000034
140.000000034
140.000000034
140.000000035
140.000000036
140.000000036
140.000000036
140.000000036
140
140
140
140
140
140
140
140
140
140
140
140
140
140
140
140
140
140
140
140
140
140
140
140
140
140
140
140
140
140
140
140
140
140
140
140
140
140
140
140
140
140
140
140
140
140
140
140
140
140
140
140
140
140
140
140
140
140
140
140
140
140
140
140
140
140
140
140
140
140
140
140
140
140
140
140
140
140
140
140
140
140
140
140
140
140
140
140
140
140
140
140
140
140
140
140
140
140
140
140
140
140
140
140
140
140
140
140
140
140
140
140
140
140
140
140
140
140
140
140
140
140
140
140
140
140
140
140
140
140
140
140
140
140.000000001
140
140
140
140
140
140
140
140
140
140
140
140
140
140
140
140
140
140
140
140
140
140
140
140
140
140
140
140
140
140
140
140
140
140
140
140
140
140
140
140
140
140
140
140
140
140
140
140
140
140
140
140
140
140
140
140
140
140
140
140
140
140
140
140
140
140
140
140
140
140
140
140
140
140
140.000000001
140
140
140
140
140
140
140
140
140
140
140
140
140
140
140
140
140
140
140
140
140
140
140
140
140
140
140
140
140
140
140
140
140
140
140
140
140
140
140
140.000000001
140
140
140
140
140
140
140
140
140
140
140
140
140
140
140
140
140
140
140
140
140
140
140
140
140
140
140
140
140
140
140
140
140
140.000000001
140
140
140
140
140
140
140
140
140
140
140
140
140
140
140
140
140
140
140
140
140
140
140
140
140
140
140
140
140
140
140
140
140
140
140
140
140
140
140
140
140.000000001
140
140
140
140
140
140
140
140
140
140
140
140
140
140
140
140
140
140
140
140
140
140
140
140
140
140
140
140
140
140
140
140
140
140.000000001
140
140
140
140
140
140
140
140
140
140
140
140
140
140
140
140
140
140
140
140
140
140
140
140
140
140
140
140
140
140
140
140
140
140
140
140
140
140
140
140
140.000000001
140
140
140
140
140
140
140
140
140
140
140
140
140
140
140
140
140
140
140
140
140
140
140
140
140
140
140
140
140
140
139.999999999
140
140
140.000000001
140
140
140
140
140
140
140
140
140
140
140
140
140
140
140
140
140
140
140
140
140
140
140
140
140
140
140
140
140
140
140
140
140
140
140
140
140
140
140
140
140.000000001
140
140
140
140
140
140
140
140
140
140
140
140
140
140
140
140
140
140
140
140
140
140
140
140
140
140
140
140
140
140
140
140
140
140
140
140
140
140
140
140
140
140
140
140
140
140
140
140
140
140
140
140
140
140
140
140
140
140
140
140
140
140
140
140
140
140
140
140
140
140
140
140
140
140
140.000000001
140
140
140
140
140
140
140
140
140
140
140
140
140
140
140
140.000000001
140
140
140
140
140
140
140
140
140
140
140
140
140
140
140
140
140
140
140
140
140
140
140
140
140
140
140
140
140
139.999999999
140
140
140
140
140
140
140
140
140
140
140
140
140
140
140
140
140
140
140
140
140
140
140
140
140
140
140
140
140
140
140
140
140
140
140
140
140
140
140
140
140
140
140
140
140
140
140
140
140
140
140
140
140
140
140
140
140
140
140
140
140
140
140
140
140
140
140
140
140
140
140
140
140
140
140
140
140
140
140
140
140
140
140
140
140
140
140
140
140
140
140
140
140
140
140
140
140
140
140
140
140
140
140
140
140
140
140
140
140
140
140
140
140
140
140
140
140
140
140
140
140.000000001
140
140
140
140
140
140
140
140
140
140
140
140
140
140
140
140
140
140
140
140
140
140
140
140
140
140
140
140
140
140
140
140
140
140
140
140
140
140
139.999999999
140
140
140
140
140
140
140
140
140
140
140
140
140
140
140
140
140
140
140
140
140
140
140
140.000000001
140
140
140
140
140
140
140
140
140
140
140
140.000000001
140
140
140
140
140
140
140
140
140
140
140
140
140
140
140
140
140
140
140
140
140
140
140
139.999999999
139.999999999
140
140
140
140
140
140
140
140
140
140
140
140
140
140
140
140
140
140
140
140
140
140
140
140
140
140
140
140
140
140
140
140
140
140
140
140
140
140.000000001
140
140
140
140
140
140
140
140
140
140
140
140.000000001
140
140
140
140
140
140
140
140
140
140
140
140
140
140
140
140
140
140
140
140
140
140
140
139.999999999
139.999999999
140
140
140
140
140
140
140
140
140
140
140
140
140
140
140
140
140
140
140
140
140
140
140
140
140
140
140
140
140
140
140
140
140
140
140
140
140
140
140
140
140
140
140
140
140
140
140
140
140
140
140
140
140
140
140
140
140
140
140
140
140
140
140
140
140
140
140
140
140
140
140
140
140
140
140
140
140
140
140
140
140
140
140
140
140
140
140
140
140
140
140
140
140
140
140
140
140
140
140
140
140
140
140
140
140
140
140
140
140
140
140
140
140
140
140
140
140
140
140
140
140
140
140
140
140
140
140
140
140
140
140
140
140
140
140
140
140
140
140
140
140
140
140
140
140
140
140
140
140
140
140
140
140
140
140
140
140
140
140
140
140
140
140
140
140
140
140
140
140
140
140
140
140
140
140
140
140
140
140
140
140
140
140
140
140
140
140
140
140
140
140
140
140
140
140
140
140
140
140
140
140
140
140
140
140
140
140
140
140
140
140
140
140
140
140
140
140
140
140
140
140
140
140
140
140
140
140
140
140
140
140
140
140
140
140
140
140
140
140
140
140
140
140
140
140
140
140
140
140
140
140
140
140
140
140
140
140
140
140
140
140
140
140
140
140
140
140
140
140
140
140
140
140
140
140
140
140
140
140
140
140
140
140
140
140
140
140
140
140
140
140
140
140
140
140
140
140
140
140
140
140
140
140
140
140
140
140
140
140
140
140
140
140
140
140
140
140
140
140
140
140
140
140
140
140
140
140
140
140
140
140
140
140
140
140
140
140
140
140
140
140
140
140
140
140
140
140
140
140
140
140
140
140
140
140
140
140
140
140
140
140
140
140
140
140
140
140
140
140
140
140
140
140
140
140
140
140
140
140
140
140
140
140
140
139.999986643
139.999500514
140.002246187
145.51621289
589.348313916
8028.94558009
7225.49763079
5862.53012859
5261.50924726
4938.74375208
4695.05434742
4512.72215095
4371.59259381
4256.60268759
4156.41822177
4064.66647233
3978.86375869
3899.89764144
3826.36530863
3757.83694894
3696.28349446
3643.83498739
3596.55356881
3550.77232199
3501.29099792
3441.70366897
3370.47983546
3285.19032653
3176.69875932
3042.27817915
2871.15728228
2664.13421979
2409.85300516
2105.85294726
1733.44643277
139.999979151
139.999123356
140.001307304
148.303833765
735.377994665
9203.78219501
6884.17378165
5800.39534789
5209.54964977
4908.31661185
4677.06401916
4502.76347597
4366.1483834
4254.75326668
4156.70737706
4065.75831011
3980.21922549
3901.73337848
3827.35274975
3758.29115772
3696.10047813
3643.26258777
3595.82513474
3550.21751992
3501.4738799
3443.48070514
3374.19584736
3290.9182415
3184.50293697
3052.01362711
2882.58803721
2676.5623669
2422.0286829
2115.93437714
1738.47835993
139.999973576
139.998822253
139.99712428
149.95684918
812.785176505
9526.63357989
6657.19364414
5692.82258756
5173.2604195
4891.42682774
4671.67699495
4502.40960634
4365.87820082
4255.07182937
4160.07031484
4070.6825399
3982.69210045
3903.21036186
3828.00668407
3758.28357446
3695.48724125
3642.32755219
3595.07588696
3549.85619774
3501.92966639
3445.02017325
3377.15515608
3295.3959339
3190.74741008
3059.83956848
2891.85306298
2686.70469886
2432.03395399
2124.16177371
1742.49226253
139.999971519
139.998801753
140.008139302
151.221581316
844.2856782
9209.5345574
6493.96636267
5594.09147175
5133.90288685
4871.84692894
4664.10946392
4502.22625959
4367.52461201
4255.62687633
4160.51623288
4072.40339616
3984.84520645
3904.40683348
3828.53965216
3758.26529185
3695.05700258
3641.73037011
3594.80054251
3549.96138252
3502.69992599
3446.65244582
3379.71092986
3298.8910676
3195.40403261
3065.67414429
2898.57307031
2693.61403293
2438.41591638
2129.13115955
1744.79739171
139.999929237
139.997914541
140.454281934
208.989768496
2437.0179495
8733.1707855
6310.63856511
5531.62117121
5120.28152077
4854.91275423
4651.09828342
4494.7388626
4365.86728451
4255.55900307
4159.88659053
4072.03326022
3985.62234649
3905.28987006
3828.90972061
3757.98433045
3694.77271296
3641.60714823
3595.17462206
3551.12937783
3504.416057
3448.88960476
3382.54555927
3302.32985917
3199.70223056
3070.9966355
2904.90408364
2700.39920142
2444.7551683
2133.99045974
1746.95580326
139.999679793
139.991853879
142.6148526
389.934434865
5301.33236463
8171.98803783
6160.37664502
5468.49335332
5108.38710188
4849.08738459
4642.70573648
4485.34013698
4359.5324284
4254.08808034
4160.22026406
4072.65137738
3986.78564485
3906.67188975
3830.29278243
3758.40726687
3695.86572523
3643.18741152
3597.63349007
3554.11350065
3507.29367758
3451.92012433
3385.6401989
3305.62769045
3203.2690612
3075.06521916
2909.59863928
2705.46803796
2449.80360327
2137.98913415
1748.81270269
139.999093867
139.974321543
146.667949675
621.089693677
7774.34332869
7738.74961652
6077.20402459
5417.01100786
5086.00601099
4834.59804706
4632.48434102
4476.78646013
4354.46687985
4251.70105937
4160.13054636
4074.14470113
3989.18174746
3909.3002269
3833.44221605
3761.26957563
3698.52565763
3646.16659595
3600.76617912
3557.47385927
3510.57689555
3455.35829536
3388.74209957
3308.43755209
3205.8287271
3077.43170255
2911.8089382
2707.39487483
2451.70644428
2139.56575949
1749.66185938
139.998459376
139.956411985
150.429417094
788.812820823
9060.216946
7380.71885491
6016.03296353
5370.68046748
5058.36321575
4813.6214556
4618.44307774
4467.35005599
4349.27672292
4249.75072532
4160.41208051
4075.26300644
3992.04250295
3911.51369226
3834.72391346
3762.36271658
3699.80580701
3648.02941119
3603.17049011
3560.10275797
3513.29879534
3457.86847193
3390.84066618
3309.83313675
3206.47854871
3077.52412704
2911.38345353
2706.52276592
2450.58889483
2138.44023862
1749.03223959
139.997510043
139.926150269
154.953616031
965.272544971
9954.56954245
6939.98978312
5911.33623572
5313.12504094
5021.63848976
4792.58305046
4607.28783617
4462.01960318
4345.36013248
4248.04487396
4160.7610854
4075.83228207
3989.99013463
3909.14902474
3832.51328101
3760.26211171
3699.20396676
3648.68823583
3604.67248507
3562.09498814
3515.51792703
3460.01152768
3392.70107429
3311.24525515
3207.54344617
3078.19435474
2911.70415968
2706.50588766
2450.19046722
2137.823434
1748.58866906
139.997735149
139.984521599
158.687935514
1041.53676845
9568.31970545
6721.69194611
5743.76161473
5266.14506798
4989.45607278
4770.9034263
4597.03283396
4458.82794674
4342.42674419
4244.71476576
4159.65958901
4074.37343112
3988.18573327
3905.7854185
3828.72520972
3757.85393744
3697.74722968
3648.61168911
3605.40745178
3563.56527678
3517.48935568
3462.16391266
3394.70642777
3313.20098861
3209.57329814
3080.40875057
2913.99297122
2708.74043041
2452.20388612
2139.31087428
1749.21970577
139.982629468
142.032095426
341.455994217
4301.40076024
8747.55011696
6427.0207039
5622.65278943
5236.59864537
4974.69360373
4752.14869761
4578.2701345
4445.89195715
4338.98751925
4244.14419961
4156.39884258
4071.705684
3985.52114521
3902.77405391
3825.72400352
3755.79343249
3697.00393956
3649.03964437
3607.0525714
3565.80203478
3519.89141035
3464.37511703
3396.41237492
3314.19616862
3209.98184231
3080.54147715
2914.00876926
2708.70830213
2452.16276524
2139.19619778
1749.11353136
139.901026221
150.652165197
765.957335328
8406.63409008
7905.67405505
6239.99425247
5506.56691015
5165.18022537
4942.72240507
4738.79520154
4566.44739839
4434.45560611
4331.14969206
4241.38117636
4156.93361384
4070.61952629
3983.16162809
3900.61814146
3823.91811104
3755.10045998
3697.56353952
3651.06573733
3609.74616708
3568.59743482
3522.7207926
3466.67114418
3398.37633605
3315.9886412
3211.69280953
3082.3336911
2915.81517074
2710.58421803
2454.00115093
2140.69170992
1749.78708578
139.818994679
158.312575339
1035.49735057
9986.62333019
7302.76438802
6100.32301485
5446.7427195
5112.91192937
4891.47684443
4715.31940039
4559.50637629
4429.8359773
4325.69293284
4239.59301811
4155.88332299
4068.9683583
3981.24230565
3899.38712205
3822.8978593
3754.74789265
3698.45780431
3652.70258033
3611.8845904
3570.75184025
3524.74968852
3468.13481969
3399.16347439
3316.11229304
3211.43399183
3081.94843619
2915.36170596
2710.05817012
2453.38107958
2139.99466477
1749.33288853
140.089933577
172.248558746
1292.29146056
9783.35403831
6869.95345625
5841.86417407
5375.01711651
5078.79058617
4856.61727025
4689.20079971
4542.78384111
4423.98529719
4321.99978317
4232.44717281
4152.82041125
4066.67234618
3977.97105463
3896.43347378
3820.56331889
3753.69446732
3698.35823117
3653.21806102
3612.70504394
3571.81075491
3525.87081554
3469.21755291
3400.21420745
3317.23455815
3212.47739736
3083.38435844
2917.15801125
2712.20397702
2455.78535557
2142.09684562
1750.39943192
150.525681409
596.112777754
6649.88180793
8642.39590645
6447.55600181
5672.71486798
5307.83472521
5048.72988434
4835.37286988
4665.15618325
4524.46145197
4413.01492682
4313.27168428
4229.21387478
4148.42784256
4062.2498855
3975.38041064
3893.71322944
3819.28599182
3753.47049034
3699.18486071
3654.75593349
3614.68921323
3573.74769235
3527.47812413
3470.30924639
3400.77359625
3317.45306675
3212.58619831
3083.53372042
2917.32879532
2712.27760103
2455.74821007
2141.88869346
1750.23498503
172.298584629
1098.20559452
9935.79254381
7722.13274783
6227.62402321
5531.83199071
5235.86625751
5009.2452052
4807.42638459
4639.13921692
4505.96206829
4401.03787669
4306.95944346
4224.95274672
4144.53091431
4059.03404506
3972.96105308
3892.15260352
3818.34621988
3753.69819374
3699.97394862
3656.22881952
3616.27932268
3575.27502768
3528.77061229
3471.41603506
3401.72875982
3318.45875894
3213.88719862
3085.29937558
2919.5386776
2714.96198866
2458.60189493
2144.32882736
1751.43895258
199.215979119
1416.68082699
10065.9346641
7075.38751472
5974.32285287
5412.64639995
5161.168876
4964.55252665
4780.46635341
4619.94751896
4492.00590076
4389.7078505
4304.16627589
4222.98854417
4142.1157625
4057.36151605
3971.55145877
3891.40728877
3818.94789319
3755.63884053
3703.12007201
3659.67644739
3619.56417777
3577.99153228
3531.10981381
3473.27796592
3403.23879034
3319.81357446
3215.02708564
3086.53459121
2920.63791699
2715.84398694
2459.39937433
2144.93325699
1751.75466781
815.110898643
6416.02408997
8847.31619432
6624.42859868
5778.9958847
5345.06173609
5114.28306797
4922.84739959
4752.11131927
4601.6387192
4478.45669563
4386.27802241
4302.10273641
4221.40088816
4141.36190282
4055.66292892
3969.88566289
3890.4291996
3819.46510187
3758.20407053
3706.59892048
3663.01625671
3622.22372835
3579.77665574
3532.31598595
3473.87569085
3403.41823412
3319.91286534
3214.96640703
3086.49550442
2920.56380028
2715.42427721
2458.81314969
2144.29182364
1751.34855459
1616.14586635
10039.24017
8025.16433103
6377.53590691
5651.94706315
5301.99967668
5066.82550502
4875.85773909
4718.98119564
4586.91931462
4477.21792767
4383.91535496
4300.87797919
4221.62799908
4140.60052406
4054.41944288
3968.48153292
3891.08862529
3823.80539474
3764.34300016
3712.86274969
3668.29628352
3626.34180365
3582.91956575
3535.07500081
3476.15755824
3405.36327343
3321.27551633
3215.8768014
3086.9098807
2920.45534076
2714.85550044
2457.93133652
2143.44974507
1750.84741115
2029.21291297
10622.3889954
7478.85337904
6168.56880483
5520.62346158
5221.91205123
5017.66563775
4846.36307235
4706.45656247
4588.77901611
4484.15779936
4397.93623836
4317.23028934
4235.77114804
4151.00761678
4061.91989235
3976.44041393
3900.71007647
3833.75508424
3773.02023474
3720.04965505
3673.62584974
3630.27664773
3585.9244556
3537.20657321
3477.63206415
3406.16163845
3321.31294322
3215.13892654
3085.4278928
2918.22677035
2711.81265585
2454.53108531
2140.3144485
1749.09726128
5488.529767
9498.67545291
6905.13672107
5865.48983183
5406.60726508
5160.00593265
4983.11375323
4838.37403896
4714.25220605
4597.97585425
4505.81415149
4416.92522593
4332.92475981
4246.83029244
4158.71872932
4067.49301404
3981.25169816
3905.74942172
3838.99352805
3777.78642959
3723.79879823
3677.11213809
3632.99424133
3588.30605208
3539.27104063
3479.50150727
3407.70373743
3322.08673886
3214.92935897
3084.14353128
2916.03903943
2708.70740551
2451.02763946
2136.96762027
1747.17297473
8984.55997509
7949.93006045
6328.85004157
5648.37094165
5331.54372262
5122.24985402
4964.74734343
4846.86346398
4727.67369337
4614.46061503
4510.81134396
4416.4764974
4325.72878823
4234.25671628
4142.31406899
4054.07897241
3974.26591611
3904.1834241
3840.09388086
3780.75296768
3727.3338471
3680.84526196
3637.07067068
3593.01796642
3544.41555284
3485.08372212
3413.55233435
3327.83956486
3220.1330493
3088.12956198
2918.44580154
2709.35371842
2450.31024686
2135.54579549
1746.08531965
8461.56241324
6687.54304631
5886.58125197
5500.30721102
5262.9261664
5093.67078595
4956.63243501
4824.75697247
4707.15125488
4599.17952417
4495.20216531
4401.44703989
4306.43935902
4213.46338265
4126.00145913
4044.83430924
3970.10828207
3903.33987638
3841.62489726
3782.86259804
3730.24851402
3684.40892381
3641.53765908
3598.46333929
3550.7142757
3492.05276172
3420.7860609
3335.02572728
3226.92795875
3094.13899656
2923.04888865
2712.00939991
2451.10350612
2135.12234449
1745.42924281
7885.26101427
6524.0546829
5832.38001649
5483.88681469
5270.85942745
5097.70507657
4950.21133571
4821.6418323
4707.92866668
4594.87164667
4490.77920339
4391.31466344
4294.62060641
4203.2675201
4119.16130003
4043.10661427
3972.27244179
3907.04943155
3845.29905343
3786.05241412
3733.45794821
3688.01031995
3645.9455768
3603.65663019
3556.71191771
3498.80253051
3428.05107549
3342.62105067
3234.73811868
3101.83312185
2930.43095476
2718.84385599
2457.01884365
2139.49067361
1747.36426513
7465.21869631
6435.86275782
5802.29269405
5486.70887924
5270.60729721
5097.4765072
4949.53582828
4824.27369376
4706.67362488
4593.63113538
4484.44604261
4378.07703667
4280.61287118
4192.82945385
4115.0590571
4043.93171661
3974.68568875
3908.97200013
3846.50275573
3786.54139534
3733.39697116
3688.04792516
3646.5433827
3605.10924233
3558.82321815
3501.45466283
3430.85635449
3345.19413445
3237.0428779
3103.23456859
2930.84016421
2718.29623492
2455.69601265
2137.89047525
1746.3174051
7159.62062654
6310.74285962
5775.40345262
5476.56158997
5263.75246916
5091.82097989
4947.03951598
4820.13208741
4700.98747272
4583.64012627
4466.6358082
4359.9706538
4266.80059466
4185.15904038
4113.36011732
4044.16049587
3975.69446975
3910.10002328
3846.69306141
3786.52545079
3733.70940197
3689.14215506
3648.54725388
3608.07230913
3562.45609711
3505.5602462
3435.08954401
3349.46711478
3241.48947106
3107.12644437
2934.08170858
2720.5018304
2456.75852412
2138.0350942
1746.0738246
6810.79480339
6158.71809916
5710.43917465
5444.22850619
5241.7885401
5076.4647082
4932.21129771
4805.54198019
4682.89482338
4558.70123169
4442.19291994
4341.87516983
4256.27910375
4182.29091597
4114.37771252
4046.60261404
3977.60282337
3910.07509172
3845.71521349
3785.21585104
3732.39042581
3688.62392673
3648.94575408
3609.60244048
3564.77176474
3508.39607721
3437.84104442
3351.82559715
3243.36962244
3107.97607878
2934.01566574
2719.71457891
2455.48908292
2136.69971
1745.25976769
6430.76749585
5977.67488202
5625.8184092
5393.9222755
5208.76580062
5045.38627958
4905.14559235
4773.89580189
4648.32715188
4527.11091556
4418.94091804
4328.24647847
4250.85608281
4180.68824812
4114.19440598
4046.88281392
3977.61467469
3909.60374511
3844.49225821
3783.64812034
3731.57386243
3688.79316603
3650.20120291
3611.70182336
3567.39622522
3511.15403682
3440.49931244
3353.89945802
3244.93788465
3108.4469863
2933.64322699
2718.86982341
2454.28456843
2135.59256841
1744.63442035
6254.07612065
5861.14076388
5563.62939077
5347.86190466
5170.09206013
5008.87195034
4870.01699017
4738.93195231
4617.52163155
4505.91068785
4407.58704623
4324.20195012
4250.64728935
4182.86612048
4117.62159737
4049.962579
3979.1086215
3909.55327197
3843.45812007
3782.5685303
3731.24479924
3689.37123514
3651.75781698
3613.87745572
3569.94673495
3513.81257486
3442.92872555
3355.71612456
3246.47843372
3108.80434221
2933.06342621
2717.51708106
2452.41062085
2133.85248773
1743.67453192
6078.28381416
5737.73598051
5477.71021401
5277.99278809
5106.60822266
4956.23995503
4816.85771414
4699.10920356
4593.39074067
4492.70896326
4401.87249734
4322.42266861
4251.46801288
4185.5410343
4120.66248881
4052.02738041
3979.54661548
3908.81375152
3842.2653549
3781.50697437
3730.75132616
3689.67251196
3652.66030129
3615.25597669
3571.47279354
3514.79693443
3443.50147437
3355.59488743
3245.78940227
3107.00499405
2930.4742966
2714.37885264
2448.97752764
2130.94723812
1742.20596149
5991.85011167
5640.07810147
5380.21433734
5197.28044143
5050.97814838
4913.62889071
4790.76657343
4681.45349386
4581.32582935
4487.24730973
4401.25330027
4325.57289467
4255.91713298
4189.55623657
4123.66456715
4053.56185382
3979.59650733
3907.87316271
3840.91915075
3780.94449802
3731.28317196
3691.09308788
3654.61515415
3617.37083201
3573.56495853
3516.76968736
3445.33214349
3356.35585367
3246.03939487
3105.68051018
2927.88813116
2710.75820971
2444.66474571
2127.15281946
1740.22425027
5814.61454026
5545.89733373
5323.015095
5156.53966131
5013.1872948
4882.32019556
4767.10480066
4665.15311503
4571.21086245
4481.44248619
4398.61047322
4324.26571669
4255.33974201
4189.20921534
4123.07635413
4051.6599258
3976.86904436
3905.04734228
3838.71729834
3779.71696388
3730.88415948
3691.3321615
3655.22561073
3618.11044152
3574.06040383
3516.71154085
3444.82890099
3355.08601048
3244.07335968
3102.15762434
2923.30740593
2705.31764477
2438.79666596
2122.08699069
1737.65200119
5690.61510683
5464.94437513
5286.02632328
5125.46763381
4984.92779314
4861.37645809
4754.11324025
4658.28221227
4568.57368692
4481.77504271
4400.47427096
4327.08148149
4258.2095989
4191.42302906
4123.8483716
4050.96117114
3974.638966
3903.25520184
3837.90780886
3780.39521764
3732.89595029
3694.05480807
3658.17505226
3620.99561928
3576.63662632
3518.74058232
3446.17590943
3355.18119207
3243.50290462
3099.86135127
2919.7679344
2700.63946076
2433.31494747
2117.20804332
1735.11328397
5628.59138927
5411.10805392
5243.37305555
5095.3908183
4964.10094735
4847.24506084
4745.78260386
4653.97874203
4567.07397698
4482.12747344
4402.16729682
4328.88152693