/*--------------------------------*- C++ -*----------------------------------*\
| =========                 |                                                 |
| \\      /  F ield         | OpenFOAM: The Open Source CFD Toolbox           |
|  \\    /   O peration     | Version:  v1706                                 |
|   \\  /    A nd           | Web:      www.OpenFOAM.com                      |
|    \\/     M anipulation  |                                                 |
\*---------------------------------------------------------------------------*/
FoamFile
{
    version     2.0;
    format      ascii;
    class       volScalarField;
    location    "0.014";
    object      Tv;
}
// * * * * * * * * * * * * * * * * * * * * * * * * * * * * * * * * * * * * * //

dimensions      [0 0 0 1 0 0 0];


internalField   nonuniform List<scalar> 
15860
(
139.999999996
139.999999996
139.999999996
140.000000001
140.000000018
140.000000057
140.000000107
140.000000148
140.000000328
140.000001891
140.000002629
139.999922451
139.999804903
140.002496521
140.020936854
140.070243483
140.918496904
156.191518254
183.647789543
206.466738541
302.025882864
610.090142809
1774.24376103
2612.05847425
3258.53302574
3722.71345099
4184.80296947
4681.17025771
5067.29626361
5335.66675526
5724.80470229
5831.03165073
5883.77818221
5931.55607799
5946.00125536
5948.82670683
5948.55782582
5940.21537565
5924.68316607
5915.62839768
5898.77410494
5857.95025956
5777.41395875
5775.28322376
5765.62434748
5731.7983477
5684.26850163
5646.45042702
5615.7219819
5590.48670518
5570.55927429
5553.77564859
5538.12925701
5514.20034506
5490.49835042
5467.82533638
5451.08453242
5436.40848839
5422.31058694
5402.70767154
5352.38270539
5292.12616147
5278.56005836
5265.51805082
5235.66460859
5208.98654074
5190.42041114
5176.9655914
5165.79734152
5156.46818424
5148.06948411
5140.40505159
5132.95657927
5132.48653454
5139.59041168
139.999999995
139.999999995
139.999999995
139.999999995
139.999999995
139.999999995
139.999999994
139.999999994
139.999999995
139.999999997
139.999999978
139.999999833
139.999999676
140.00000617
140.00004125
140.000160551
140.004183432
140.053853702
140.178205436
140.374026117
142.717299022
174.76321023
275.952042103
327.671535716
359.297484239
380.179212359
398.230812598
411.637418762
432.329425383
973.334313964
2345.69489484
3240.17163773
3619.29141468
3919.52423625
4220.52445942
4488.47874877
4718.33949759
4914.73288151
5076.56041042
5231.62312587
5345.60410412
5447.96715764
5485.60469728
5726.59011877
5815.79376157
5880.52447178
5951.51640316
5983.24441491
5997.80726215
5998.91883122
5995.30116344
5985.18628647
5973.02158741
5978.34346989
5978.34169803
5973.57669985
5967.45743726
5962.48144728
5952.97569481
5934.10939258
5877.40901807
5850.9622086
5833.91772985
5819.71220649
5792.71046908
5770.21804251
5753.21674399
5738.90806364
5727.32491033
5716.45515432
5706.83440076
5697.79838007
5689.12305271
5685.32559267
5690.4144698
139.999999995
139.999999995
139.999999995
139.999999995
139.999999995
139.999999995
139.999999994
139.999999993
139.999999994
139.999999994
139.999999995
139.999999995
139.999999995
140.000000009
140.000000078
140.000000448
140.000015568
140.000125465
140.000353296
140.000762684
140.008117592
140.224952486
141.51157377
142.777267195
143.722581325
144.44334557
145.127058647
145.656032309
147.917028323
205.993005709
316.841305842
367.77558564
383.55012126
394.341430821
403.951139961
411.782435022
417.99165761
422.949225734
426.694169068
429.295673486
430.643303587
450.464344184
1130.30876982
2139.04580234
2649.24690318
3222.58717388
3639.77477753
4002.09686211
4329.50471752
4604.81166903
4835.20365542
5018.66606226
5164.81776795
5273.63436801
5363.80167147
5436.77138475
5490.91150845
5544.86813385
5587.954925
5629.00237135
5614.48980358
5791.87376024
5852.14121447
5896.81491492
5943.91305593
5983.26969329
6010.00881896
6024.44809019
6038.03779562
6044.31823047
6051.03965544
6053.1178096
6056.12522536
6058.56686943
6055.39978669
139.999999995
139.999999995
139.999999995
139.999999995
139.999999995
139.999999995
139.999999994
139.999999994
139.999999994
139.999999994
139.999999995
139.999999995
139.999999995
139.999999995
139.999999996
139.999999997
140.000000045
140.000000275
140.000000682
140.000001528
140.000027915
140.000675493
140.003302336
140.006034754
140.008184808
140.00991237
140.011583207
140.012846843
140.025119543
140.508013962
142.585606406
144.212181104
144.760570519
145.14635654
145.492077261
145.782496505
146.021192279
146.220284872
146.3791391
146.503802105
146.573186661
149.37005995
215.75534129
303.79173514
340.157251877
371.525428639
388.704466676
401.504067156
411.680514626
419.382357393
425.319388098
429.738856826
432.92445826
434.680987366
435.974379824
438.293090956
583.471731545
866.844218021
1046.10420725
1194.20704574
1404.5608789
2169.12834495
2523.39210143
2893.31107389
3207.42033605
3410.52112944
3584.58532389
3721.9221676
3856.57130286
3961.63635746
4067.85651329
4149.42715528
4240.54584661
4301.37763191
4245.25394429
139.999999995
139.999999995
139.999999995
139.999999996
139.999999995
139.999999995
139.999999995
139.999999994
139.999999994
139.999999994
139.999999995
139.999999995
139.999999995
139.999999996
139.999999996
139.999999996
139.999999996
139.999999995
139.999999996
139.999999997
140.000000098
140.000001835
140.000006979
140.000012406
140.000016745
140.000020305
140.000023603
140.000026366
140.000078156
140.001394136
140.005831266
140.009552927
140.010934974
140.011945373
140.012870362
140.013671078
140.014351916
140.014938557
140.015426675
140.015824782
140.016042909
140.033634105
140.571535664
142.283568966
143.442923244
144.55798329
145.180944221
145.653183937
146.035450565
146.332359832
146.569257228
146.753761292
146.89349479
146.987330903
147.065693936
147.306394838
158.085479966
183.345233568
200.990435281
215.654381884
239.168784087
307.746796769
334.680577024
357.914600264
374.099771338
382.95908021
389.985291304
395.179102482
400.050568529
403.663313824
407.187284793
409.787780799
412.577353529
414.416289469
412.943119458
139.999999995
139.999999995
139.999999995
139.999999996
139.999999995
139.999999996
139.999999995
139.999999994
139.999999994
139.999999994
139.999999995
139.999999995
139.999999996
139.999999996
139.999999996
139.999999996
139.999999996
139.999999995
139.999999994
139.999999994
139.999999994
139.999999999
140.000000009
140.000000019
140.000000028
140.000000034
140.00000004
140.000000048
140.00000025
140.000003569
140.000012285
140.000019301
140.000022226
140.000024442
140.0000265
140.000028335
140.000029953
140.000031394
140.00003264
140.000033637
140.000034282
140.000103463
140.001452856
140.00527562
140.008095189
140.010880503
140.012529306
140.013821147
140.014896452
140.01575902
140.016468091
140.017039623
140.017490221
140.017817391
140.018139758
140.019815512
140.058791111
140.195765014
140.342855955
140.506074247
140.864246396
142.446055721
143.325972629
144.169228932
144.778464382
145.109600297
145.375062599
145.57305355
145.760021841
145.899407498
146.035792239
146.136548744
146.244166533
146.316475205
146.266804072
139.999999995
139.999999996
139.999999996
139.999999996
139.999999996
139.999999996
139.999999996
139.999999994
139.999999994
139.999999995
139.999999995
139.999999995
139.999999995
139.999999996
139.999999996
139.999999996
139.999999996
139.999999995
139.999999995
139.999999994
139.999999994
139.999999994
139.999999995
139.999999995
139.999999996
139.999999995
139.999999996
139.999999996
139.999999997
140.000000005
140.00000002
140.000000031
140.000000036
140.00000004
140.000000044
140.000000048
140.000000053
140.000000057
140.00000006
140.000000063
140.000000064
140.000000306
140.000003449
140.000010988
140.000016755
140.000022345
140.000025844
140.000028655
140.000031047
140.00003303
140.000034709
140.000036115
140.000037275
140.000038209
140.000039426
140.000045998
140.000137002
140.000441758
140.000771765
140.001154925
140.002027955
140.005739538
140.007940603
140.010098885
140.011708582
140.012623683
140.013360106
140.013919966
140.014451723
140.014855366
140.01525064
140.015547287
140.01586198
140.016077124
140.015946478
139.999999995
139.999999996
139.999999996
139.999999996
139.999999996
139.999999996
139.999999996
139.999999995
139.999999994
139.999999995
139.999999995
139.999999995
139.999999995
139.999999996
139.999999995
139.999999996
139.999999997
139.999999996
139.999999995
139.999999995
139.999999995
139.999999994
139.999999995
139.999999995
139.999999996
139.999999996
139.999999996
139.999999996
139.999999996
139.999999996
139.999999997
139.999999996
139.999999995
139.999999994
139.999999994
139.999999995
139.999999996
139.999999996
139.999999997
139.999999998
139.999999997
139.999999997
140.000000004
140.000000018
140.000000029
140.000000039
140.000000046
140.000000053
140.000000058
140.000000062
140.000000065
140.000000069
140.000000072
140.000000073
140.000000077
140.000000102
140.000000309
140.000000941
140.00000164
140.0000025
140.00000455
140.000012253
140.000016992
140.000021617
140.000025102
140.000027146
140.000028806
140.000030094
140.000031315
140.000032261
140.000033184
140.000033887
140.000034624
140.000035139
140.000034888
139.999999995
139.999999996
139.999999996
139.999999996
139.999999996
139.999999996
139.999999996
139.999999995
139.999999994
139.999999995
139.999999995
139.999999996
139.999999995
139.999999996
139.999999996
139.999999996
139.999999997
139.999999996
139.999999995
139.999999995
139.999999995
139.999999994
139.999999995
139.999999995
139.999999996
139.999999996
139.999999995
139.999999996
139.999999996
139.999999997
139.999999997
139.999999996
139.999999995
139.999999994
139.999999994
139.999999995
139.999999995
139.999999997
139.999999997
139.999999998
139.999999997
139.999999996
139.999999996
139.999999996
139.999999996
139.999999996
139.999999996
139.999999997
139.999999997
139.999999997
139.999999996
139.999999997
139.999999997
139.999999996
139.999999996
139.999999997
139.999999997
139.999999998
140
140.000000002
140.000000007
140.000000022
140.000000032
140.000000041
140.000000048
140.000000053
140.000000057
140.00000006
140.000000062
140.000000064
140.000000067
140.000000068
140.000000069
140.000000071
140.00000007
139.999999995
139.999999995
139.999999996
139.999999997
139.999999996
139.999999996
139.999999996
139.999999996
139.999999995
139.999999994
139.999999995
139.999999996
139.999999996
139.999999996
139.999999996
139.999999996
139.999999997
139.999999996
139.999999996
139.999999995
139.999999995
139.999999995
139.999999995
139.999999995
139.999999996
139.999999996
139.999999996
139.999999996
139.999999997
139.999999997
139.999999997
139.999999996
139.999999996
139.999999995
139.999999994
139.999999995
139.999999995
139.999999996
139.999999997
139.999999998
139.999999997
139.999999996
139.999999996
139.999999996
139.999999996
139.999999997
139.999999996
139.999999997
139.999999997
139.999999997
139.999999996
139.999999997
139.999999997
139.999999996
139.999999996
139.999999996
139.999999997
139.999999996
139.999999997
139.999999997
139.999999997
139.999999997
139.999999997
139.999999996
139.999999996
139.999999997
139.999999998
139.999999997
139.999999997
139.999999997
139.999999998
139.999999997
139.999999997
139.999999997
139.999999997
139.999999996
139.999999995
139.999999996
139.999999997
139.999999997
139.999999996
139.999999997
139.999999996
139.999999995
139.999999995
139.999999995
139.999999996
139.999999996
139.999999996
139.999999996
139.999999997
139.999999997
139.999999997
139.999999996
139.999999995
139.999999995
139.999999995
139.999999995
139.999999996
139.999999996
139.999999996
139.999999996
139.999999996
139.999999997
139.999999997
139.999999997
139.999999997
139.999999996
139.999999995
139.999999994
139.999999995
139.999999996
139.999999996
139.999999997
139.999999998
139.999999997
139.999999996
139.999999996
139.999999997
139.999999997
139.999999997
139.999999997
139.999999997
139.999999997
139.999999997
139.999999996
139.999999997
139.999999997
139.999999996
139.999999996
139.999999996
139.999999997
139.999999997
139.999999997
139.999999997
139.999999997
139.999999997
139.999999997
139.999999996
139.999999996
139.999999997
139.999999998
139.999999997
139.999999998
139.999999997
139.999999998
139.999999997
139.999999997
139.999999997
139.999999997
139.999999996
139.999999996
139.999999996
139.999999997
139.999999997
139.999999997
139.999999997
139.999999996
139.999999996
139.999999995
139.999999995
139.999999996
139.999999996
139.999999996
139.999999996
139.999999996
139.999999997
139.999999997
139.999999997
139.999999995
139.999999995
139.999999995
139.999999995
139.999999995
139.999999996
139.999999996
139.999999996
139.999999997
139.999999997
139.999999997
139.999999997
139.999999997
139.999999997
139.999999995
139.999999995
139.999999994
139.999999996
139.999999996
139.999999997
139.999999998
139.999999997
139.999999997
139.999999996
139.999999997
139.999999997
139.999999997
139.999999997
139.999999997
139.999999997
139.999999997
139.999999996
139.999999997
139.999999997
139.999999996
139.999999996
139.999999997
139.999999997
139.999999997
139.999999997
139.999999997
139.999999997
139.999999997
139.999999997
139.999999996
139.999999996
139.999999997
139.999999998
139.999999997
139.999999998
139.999999997
139.999999998
139.999999997
139.999999997
139.999999997
139.999999997
139.999999996
139.999999996
139.999999996
139.999999997
139.999999997
139.999999997
139.999999997
139.999999996
139.999999996
139.999999995
139.999999996
139.999999996
139.999999996
139.999999996
139.999999996
139.999999996
139.999999997
139.999999997
139.999999997
139.999999996
139.999999995
139.999999995
139.999999995
139.999999995
139.999999996
139.999999996
139.999999997
139.999999996
139.999999997
139.999999997
139.999999997
139.999999997
139.999999997
139.999999995
139.999999995
139.999999994
139.999999996
139.999999996
139.999999997
139.999999998
139.999999998
139.999999997
139.999999997
139.999999996
139.999999997
139.999999997
139.999999997
139.999999997
139.999999998
139.999999997
139.999999996
139.999999997
139.999999997
139.999999996
139.999999996
139.999999996
139.999999997
139.999999997
139.999999997
139.999999998
139.999999997
139.999999997
139.999999997
139.999999997
139.999999996
139.999999997
139.999999998
139.999999997
139.999999998
139.999999997
139.999999998
139.999999997
139.999999997
139.999999998
139.999999997
139.999999997
139.999999996
139.999999996
139.999999997
139.999999997
139.999999997
139.999999997
139.999999997
139.999999996
139.999999995
139.999999996
139.999999996
139.999999996
139.999999996
139.999999997
139.999999997
139.999999997
139.999999997
139.999999998
139.999999996
139.999999995
139.999999995
139.999999995
139.999999995
139.999999996
139.999999997
139.999999997
139.999999996
139.999999997
139.999999997
139.999999997
139.999999997
139.999999997
139.999999996
139.999999995
139.999999995
139.999999996
139.999999997
139.999999998
139.999999998
139.999999998
139.999999997
139.999999997
139.999999996
139.999999997
139.999999997
139.999999997
139.999999997
139.999999998
139.999999997
139.999999996
139.999999997
139.999999997
139.999999996
139.999999996
139.999999997
139.999999997
139.999999997
139.999999997
139.999999998
139.999999997
139.999999997
139.999999997
139.999999997
139.999999996
139.999999997
139.999999998
139.999999997
139.999999998
139.999999997
139.999999998
139.999999997
139.999999998
139.999999998
139.999999998
139.999999997
139.999999997
139.999999997
139.999999996
139.999999997
139.999999997
139.999999997
139.999999997
139.999999997
139.999999995
139.999999996
139.999999996
139.999999996
139.999999996
139.999999996
139.999999997
139.999999997
139.999999997
139.999999998
139.999999997
139.999999996
139.999999995
139.999999995
139.999999995
139.999999996
139.999999997
139.999999997
139.999999997
139.999999998
139.999999997
139.999999997
139.999999997
139.999999997
139.999999996
139.999999995
139.999999995
139.999999996
139.999999997
139.999999998
139.999999999
139.999999998
139.999999997
139.999999997
139.999999997
139.999999998
139.999999997
139.999999997
139.999999997
139.999999998
139.999999998
139.999999997
139.999999997
139.999999997
139.999999997
139.999999996
139.999999997
139.999999998
139.999999997
139.999999997
139.999999998
139.999999997
139.999999997
139.999999997
139.999999997
139.999999997
139.999999997
139.999999998
139.999999997
139.999999998
139.999999997
139.999999998
139.999999997
139.999999998
139.999999998
139.999999998
139.999999997
139.999999997
139.999999997
139.999999997
139.999999997
139.999999997
139.999999997
139.999999997
139.999999998
139.999999996
139.999999995
139.999999996
139.999999996
139.999999996
139.999999996
139.999999997
139.999999997
139.999999997
139.999999998
139.999999998
139.999999996
139.999999996
139.999999996
139.999999996
139.999999996
139.999999997
139.999999997
139.999999997
139.999999998
139.999999997
139.999999997
139.999999997
139.999999998
139.999999996
139.999999995
139.999999995
139.999999996
139.999999997
139.999999998
139.999999999
139.999999999
139.999999997
139.999999997
139.999999997
139.999999998
139.999999997
139.999999997
139.999999998
139.999999998
139.999999998
139.999999997
139.999999997
139.999999998
139.999999997
139.999999996
139.999999997
139.999999998
139.999999997
139.999999997
139.999999998
139.999999997
139.999999997
139.999999998
139.999999997
139.999999997
139.999999998
139.999999998
139.999999997
139.999999998
139.999999998
139.999999998
139.999999997
139.999999998
139.999999998
139.999999998
139.999999996
139.999999997
139.999999998
139.999999997
139.999999997
139.999999997
139.999999998
139.999999998
139.999999998
139.999999997
139.999999996
139.999999996
139.999999996
139.999999996
139.999999996
139.999999997
139.999999997
139.999999997
139.999999998
139.999999998
139.999999997
139.999999996
139.999999996
139.999999996
139.999999996
139.999999997
139.999999997
139.999999997
139.999999998
139.999999997
139.999999997
139.999999998
139.999999998
139.999999997
139.999999996
139.999999995
139.999999996
139.999999997
139.999999998
139.999999999
139.999999999
139.999999998
139.999999997
139.999999997
139.999999998
139.999999997
139.999999997
139.999999998
139.999999998
139.999999998
139.999999997
139.999999997
139.999999998
139.999999997
139.999999997
139.999999998
139.999999999
139.999999997
139.999999997
139.999999998
139.999999997
139.999999998
139.999999998
139.999999998
139.999999998
139.999999998
139.999999998
139.999999997
139.999999998
139.999999998
139.999999998
139.999999997
139.999999997
139.999999999
139.999999998
139.999999997
139.999999998
139.999999998
139.999999997
139.999999997
139.999999997
139.999999998
139.999999998
139.999999998
139.999999998
139.999999996
139.999999996
139.999999996
139.999999996
139.999999996
139.999999996
139.999999997
139.999999997
139.999999999
139.999999999
139.999999997
139.999999997
139.999999996
139.999999996
139.999999996
139.999999997
139.999999997
139.999999997
139.999999998
139.999999998
139.999999998
139.999999998
139.999999998
139.999999997
139.999999996
139.999999996
139.999999996
139.999999997
139.999999998
139.999999999
139.999999999
139.999999998
139.999999997
139.999999998
139.999999998
139.999999997
139.999999997
139.999999998
139.999999998
139.999999998
139.999999998
139.999999997
139.999999998
139.999999997
139.999999997
139.999999998
139.999999999
139.999999997
139.999999997
139.999999998
139.999999998
139.999999998
139.999999998
139.999999998
139.999999998
139.999999998
139.999999998
139.999999998
139.999999998
139.999999998
139.999999999
139.999999997
139.999999998
139.999999999
139.999999998
139.999999997
139.999999998
139.999999998
139.999999998
139.999999997
139.999999997
139.999999998
139.999999998
139.999999998
139.999999999
139.999999997
139.999999997
139.999999996
139.999999996
139.999999996
139.999999997
139.999999998
139.999999997
139.999999998
139.999999999
139.999999999
139.999999997
139.999999997
139.999999997
139.999999996
139.999999997
139.999999998
139.999999997
139.999999998
139.999999998
139.999999998
139.999999998
139.999999998
139.999999998
139.999999997
139.999999996
139.999999996
139.999999997
139.999999998
139.999999999
139.999999999
139.999999998
139.999999998
139.999999997
139.999999998
139.999999998
139.999999997
139.999999998
139.999999998
139.999999999
139.999999998
139.999999997
139.999999999
139.999999997
139.999999997
139.999999998
139.999999999
139.999999997
139.999999997
139.999999998
139.999999998
139.999999998
139.999999998
139.999999998
139.999999999
139.999999998
139.999999998
139.999999999
139.999999998
139.999999998
139.999999999
139.999999997
139.999999997
139.999999998
139.999999999
139.999999997
139.999999997
139.999999998
139.999999999
139.999999998
139.999999998
139.999999998
139.999999998
139.999999999
139.999999999
139.999999998
139.999999997
139.999999996
139.999999996
139.999999997
139.999999997
139.999999998
139.999999998
139.999999999
139.999999999
139.999999999
139.999999998
139.999999998
139.999999997
139.999999996
139.999999998
139.999999998
139.999999998
139.999999998
139.999999998
139.999999998
139.999999998
139.999999998
139.999999999
139.999999997
139.999999997
139.999999997
139.999999997
139.999999998
139.999999999
139.999999999
139.999999999
139.999999998
139.999999998
139.999999999
139.999999998
139.999999998
139.999999998
139.999999998
139.999999999
139.999999998
139.999999998
139.999999999
139.999999997
139.999999998
139.999999998
139.999999999
139.999999997
139.999999997
139.999999998
139.999999998
139.999999999
139.999999998
139.999999998
139.999999998
139.999999998
139.999999998
139.999999999
139.999999999
139.999999998
139.999999999
139.999999998
139.999999998
139.999999998
139.999999999
139.999999997
139.999999997
139.999999998
139.999999999
139.999999999
139.999999998
139.999999998
139.999999999
139.999999998
139.999999999
139.999999999
139.999999998
139.999999997
139.999999997
139.999999997
139.999999997
139.999999998
139.999999999
139.999999998
139.999999999
140
139.999999999
139.999999998
139.999999998
139.999999997
139.999999997
139.999999999
139.999999999
139.999999999
139.999999998
139.999999998
139.999999998
139.999999998
139.999999999
139.999999997
139.999999998
139.999999997
139.999999997
139.999999998
139.999999999
139.999999999
139.999999999
139.999999998
139.999999998
139.999999999
139.999999998
139.999999998
139.999999998
139.999999998
139.999999999
139.999999999
139.999999998
139.999999999
139.999999998
139.999999998
139.999999998
140
139.999999998
139.999999998
139.999999999
139.999999998
139.999999999
139.999999998
139.999999998
139.999999998
139.999999998
139.999999998
139.999999999
139.999999999
139.999999998
139.999999999
139.999999998
139.999999998
139.999999998
139.999999999
139.999999999
139.999999998
139.999999999
139.999999999
139.999999999
139.999999999
139.999999999
139.999999999
139.999999999
139.999999999
139.999999999
139.999999998
139.999999998
139.999999998
139.999999998
139.999999998
139.999999998
139.999999999
139.999999999
139.999999999
140
140
139.999999999
139.999999998
139.999999998
139.999999998
139.999999998
139.999999999
139.999999999
139.999999998
139.999999998
139.999999998
139.999999999
139.999999999
139.999999998
139.999999998
139.999999997
139.999999997
139.999999998
139.999999999
140
139.999999999
139.999999999
139.999999998
139.999999999
139.999999998
139.999999999
139.999999998
139.999999999
139.999999999
139.999999999
139.999999999
140
139.999999998
139.999999997
139.999999999
140
139.999999999
139.999999998
139.999999999
139.999999998
139.999999999
139.999999998
139.999999999
139.999999998
139.999999998
139.999999998
139.999999999
139.999999999
139.999999999
139.999999999
139.999999998
139.999999999
139.999999998
139.999999999
139.999999999
139.999999999
139.999999999
139.999999999
139.999999999
139.999999999
139.999999999
139.999999999
140
139.999999999
139.999999999
139.999999999
139.999999999
139.999999999
139.999999999
139.999999998
139.999999998
139.999999999
139.999999999
139.999999999
139.999999999
140
140
140
139.999999998
139.999999998
139.999999999
139.999999999
139.999999999
139.999999999
139.999999998
139.999999998
139.999999999
139.999999999
139.999999999
139.999999999
139.999999998
139.999999998
139.999999998
139.999999999
140
139.999999999
139.999999999
139.999999998
139.999999999
139.999999999
139.999999999
139.999999998
139.999999999
139.999999999
139.999999999
139.999999999
140
139.999999999
139.999999998
139.999999999
140
139.999999999
139.999999998
139.999999999
139.999999999
139.999999999
139.999999999
139.999999999
139.999999998
139.999999998
139.999999998
139.999999999
140
139.999999999
139.999999999
139.999999999
139.999999999
139.999999999
139.999999999
139.999999999
139.999999999
139.999999999
139.999999999
139.999999999
139.999999999
140
140
140
140
139.999999999
139.999999999
139.999999999
139.999999999
139.999999999
140
139.999999999
140
140
139.999999999
139.999999999
140
140
140
139.999999999
139.999999999
139.999999999
139.999999999
139.999999999
139.999999999
139.999999999
139.999999999
139.999999999
140
139.999999999
139.999999999
139.999999999
139.999999998
139.999999999
139.999999999
140
140
140
139.999999999
140
139.999999999
140
139.999999999
139.999999999
139.999999999
140
140
140
139.999999999
139.999999999
139.999999999
140
139.999999999
139.999999999
139.999999999
139.999999999
139.999999999
139.999999999
140
139.999999998
139.999999998
139.999999999
139.999999999
140
140
139.999999999
139.999999999
139.999999999
139.999999999
139.999999999
139.999999999
139.999999998
139.999999999
139.999999999
139.999999999
140
140
140
140
140
139.999999999
140
139.999999999
140
140
140
139.999999999
139.999999999
140
140
140
140
140
140
140
140
139.999999999
139.999999999
139.999999999
139.999999999
139.999999999
139.999999999
140
140
139.999999999
139.999999999
140
139.999999999
139.999999999
140
139.999999999
140
140
140
140
139.999999999
140
140
139.999999999
139.999999999
140
140
140
139.999999999
140
140
140
139.999999999
139.999999999
139.999999999
139.999999999
140
139.999999999
140
139.999999999
139.999999999
139.999999999
139.999999999
140
140
139.999999999
139.999999999
140
139.999999999
139.999999999
140
140
140
140
139.999999999
139.999999999
140
139.999999999
140
140
139.999999999
140
140
139.999999999
140
140
140
140
140
140
140
140
140
140
140
140
139.999999999
139.999999999
139.999999999
140
140
140
139.999999999
140
140
140
140
140
140
140
140
140
140
140
140
139.999999999
139.999999999
140
139.999999999
140
140
140
140
140
140
140
140
139.999999999
140
140
140
140
140
140
140
140
140
139.999999999
140
140
139.999999999
140
140
140
140
140.000000264
140.000088227
140.032962051
154.303152383
406.535945414
2022.06495577
4990.59082864
5625.03440378
5414.12097961
5021.55963131
4726.94694485
4533.11156868
4389.92208578
4269.28892933
4164.6070558
4071.24546027
3984.24030369
3904.98460351
3830.49551374
3760.67577645
3697.84560079
3645.49822498
3597.72755518
3551.86780829
3502.00879277
3443.42454617
3371.46432314
3283.32042948
3178.93936251
3040.05873031
2873.29195189
2661.94367247
2410.95923786
2106.15086121
1733.86590401
140.000000403
140.000138603
140.055262054
162.256400983
477.083150021
2581.72355477
5268.89408175
5611.9493764
5370.91307805
4983.20165099
4704.28737209
4521.38894872
4383.95369802
4267.22124714
4164.97877979
4072.81388774
3985.51864735
3906.09944803
3830.94503987
3760.77719867
3697.47721936
3644.84410979
3596.96739237
3551.49988414
3502.33544097
3445.29123394
3375.24545163
3289.20837307
3186.77863316
3050.1022391
2884.85399634
2674.44786792
2423.27108315
2116.33199481
1738.8904669
140.000000588
140.000177014
140.072144012
167.98106054
527.97483279
3096.10301975
5434.24514051
5628.49447916
5316.37436653
4955.10332242
4695.79185686
4520.21949314
4382.27918348
4266.95888908
4168.1382822
4076.76803177
3988.11513965
3907.43292672
3831.63547686
3760.73076341
3696.9110771
3644.06458253
3596.28627609
3551.3120438
3502.94181452
3446.93573949
3378.24747807
3293.8772296
3193.07484277
3058.21188126
2894.26788154
2684.71772693
2433.41785186
2124.65017253
1742.98343978
140.000001972
140.000387445
140.119073586
173.092459073
568.328106825
3569.63844579
5587.39139343
5628.79025867
5270.3629282
4927.35237207
4690.85941113
4520.90697817
4382.60948884
4266.36540348
4169.05162621
4078.86437063
3990.08405779
3908.55912915
3832.24914831
3760.59007743
3696.46927658
3643.55316211
3596.10289919
3551.61399648
3504.01432582
3448.70691376
3380.90452719
3297.65006433
3197.9454495
3064.35103075
2901.17495823
2691.95125936
2440.0440163
2129.81025134
1745.41519684
140.000009747
140.002141449
141.084103519
224.746271952
836.568566787
4025.15671398
5668.21489791
5609.70294098
5235.43287016
4910.32380777
4677.23385221
4516.11216265
4379.85776493
4264.88649145
4167.6692849
4078.87657091
3991.00384751
3909.56118093
3832.81502907
3760.48481402
3696.50810167
3643.78987927
3596.99947973
3552.88561716
3506.07633204
3451.3107477
3383.8488943
3301.38118762
3202.56276268
3070.01138796
2907.6417982
2698.93388558
2446.58289619
2134.84434513
1747.742045
140.000028214
140.008154462
145.937921125
311.906299525
1302.83421186
4481.17414043
5702.93407656
5590.06626802
5221.01015573
4894.6379239
4666.47290297
4507.51387247
4375.22967065
4263.24230277
4168.39132278
4079.54441094
3992.11682526
3910.80594946
3835.50304014
3761.39592028
3698.1345125
3646.09207759
3599.83990278
3555.70069035
3509.36083633
3454.47440853
3387.12877548
3304.75864629
3206.51345658
3074.29906818
2912.48855034
2704.10715017
2451.7227188
2138.99512086
1749.74634764
140.000047943
140.018314781
154.963383096
398.559955673
1810.1202091
4871.89939493
5739.57153666
5578.01674285
5196.82450694
4876.77928838
4656.51100996
4499.45541949
4369.29501102
4260.68469209
4169.21009099
4080.59636657
3995.95966197
3914.95072786
3838.26301055
3764.44450995
3700.69781118
3648.95190163
3603.00007434
3558.83482862