/*--------------------------------*- C++ -*----------------------------------*\
| =========                 |                                                 |
| \\      /  F ield         | OpenFOAM: The Open Source CFD Toolbox           |
|  \\    /   O peration     | Version:  v1706                                 |
|   \\  /    A nd           | Web:      www.OpenFOAM.com                      |
|    \\/     M anipulation  |                                                 |
\*---------------------------------------------------------------------------*/
FoamFile
{
    version     2.0;
    format      ascii;
    class       volVectorField;
    location    "0.014";
    object      U;
}
// * * * * * * * * * * * * * * * * * * * * * * * * * * * * * * * * * * * * * //

dimensions      [0 1 -1 0 0 0 0];


internalField   nonuniform List<vector> 
15860
(
(5222.99999947 2.62211942394e-07 -6.59912008909e-13)
(5222.99999918 3.98754488569e-07 -6.60056544948e-13)
(5222.99999898 4.92655202693e-07 -6.70494200033e-13)
(5222.99999859 6.58404083534e-07 -6.9119870854e-13)
(5222.99999271 3.40052553749e-06 -7.07681013362e-13)
(5222.99997872 9.65668307917e-06 -7.32168509088e-13)
(5222.99995692 1.93593169333e-05 -7.31305723534e-13)
(5222.99993839 2.71944748835e-05 -7.39173068733e-13)
(5222.99991768 3.58412226784e-05 -7.57274161355e-13)
(5222.99990347 4.28341690309e-05 -7.67218764318e-13)
(5222.99939417 0.000254460057441 -7.73033563997e-13)
(5222.99720626 0.00116227417448 -9.74842915795e-13)
(5222.99517056 0.00201787977295 -4.15611840244e-12)
(5222.98651374 0.0058686457584 -2.92557739805e-11)
(5222.90193782 0.0405297577913 -1.8039379042e-11)
(5222.76731427 0.095756069398 -3.56983895119e-11)
(5222.65831658 0.176267802245 7.83323698738e-10)
(5218.81387303 2.16351563303 1.00644943641e-08)
(5208.90082588 6.03061856278 6.22610912625e-08)
(5200.32626479 9.87594750607 -2.23658788591e-07)
(5143.86096066 53.9311133482 4.92890409129e-07)
(4982.03367407 164.801668737 2.65828885482e-06)
(3520.05911618 841.661063531 -1.98454996218e-07)
(2768.82800715 1097.15998231 -2.30934698337e-07)
(2424.41838617 1159.81465347 -7.00277891565e-07)
(2230.02924201 1166.53343047 -1.66370275603e-06)
(2047.81178736 1156.78868323 -8.29872583656e-06)
(1817.35787546 1211.39613921 -3.08859997348e-05)
(1545.43006905 1419.90040268 -8.67075871595e-05)
(1249.65365266 1604.6442234 -0.000163062568813)
(828.807404988 1589.51253317 -0.000178200406764)
(842.596280927 1543.35697295 2.54307058329e-05)
(776.236237928 1477.71390735 -0.000101480741289)
(739.793520823 1427.06391654 -0.000241482433198)
(702.848334045 1374.94826296 -0.000431625399304)
(668.778024771 1331.82005252 -0.000817807478166)
(639.589087955 1294.19627678 -0.00131100970554)
(614.100876933 1264.60444155 -0.00205203406998)
(595.903412587 1245.24515677 -0.00283901179296)
(582.526650472 1230.49027511 -0.00394154314181)
(575.930179622 1219.30460969 -0.00528128393282)
(572.656546629 1192.81450088 -0.00738986732189)
(537.999845085 1105.4670149 -0.0172331914594)
(485.669388902 1013.87861275 -0.0335158487522)
(467.168160057 955.996058417 -0.117548150521)
(449.475402847 911.279501646 -0.302247098792)
(434.69166993 872.064551191 -0.785978314059)
(421.444576615 833.130902265 -1.85517767515)
(409.427445613 795.184888115 -3.37891688623)
(397.769167978 758.391948915 -4.64282289579)
(388.30922115 724.467922774 -3.47766979913)
(379.628200246 692.486460919 0.742688731325)
(369.491227924 662.241738377 7.587102174)
(364.642417467 637.647166374 9.73268234623)
(362.322789401 612.58293348 2.17144857455)
(353.120303672 585.140012147 1.0182993667)
(348.165279644 567.106619378 -0.253440485933)
(347.981199888 556.840567238 -0.00145449604254)
(349.726341335 553.494948239 -0.0011294278604)
(350.878288827 549.464172017 -0.000343650838863)
(330.69568801 525.30315952 0.000142554402844)
(277.800426819 464.98648199 6.82638917034e-06)
(285.997973031 403.449358964 -1.08325033054e-06)
(292.567933422 358.570600877 4.67704462666e-07)
(287.245931659 319.389835273 2.12718088788e-07)
(282.371258163 285.632797294 1.10568548104e-06)
(276.37039093 253.089932064 2.95935498183e-06)
(273.481666869 222.020083601 8.36277289525e-06)
(269.577125089 191.690129542 -2.73898175331e-06)
(267.050534004 161.876677876 -0.000385516464432)
(263.984181481 132.197465319 -0.00587034097672)
(261.571866982 102.205837684 -0.0736415567677)
(257.86671557 71.0472105874 0.215790018259)
(259.755705082 39.6052875652 -0.0807128777837)
(272.400696179 17.7874137235 -0.0230355035536)
(5222.99999999 3.02703624092e-09 -6.45617447888e-13)
(5222.99999999 3.93726361094e-09 -6.50157694631e-13)
(5222.99999999 4.76679551635e-09 -6.59066653108e-13)
(5222.99999999 7.2671203072e-09 -6.80927202032e-13)
(5222.99999996 2.0094941736e-08 -6.9265440988e-13)
(5222.99999985 6.80236259223e-08 -7.17980335527e-13)
(5222.99999968 1.42233915314e-07 -7.20161000661e-13)
(5222.99999953 2.08754210252e-07 -7.27232601582e-13)
(5222.99999931 3.04546179632e-07 -7.46426043167e-13)
(5222.9999987 6.25148482375e-07 -7.59946715273e-13)
(5222.99999146 4.15892553368e-06 -7.60562885574e-13)
(5222.99997532 1.05147657431e-05 -7.61631308583e-13)
(5222.99995946 1.78367150157e-05 -7.80157116326e-13)
(5222.99990992 3.78563766216e-05 -6.77935708428e-13)
(5222.99916173 0.000333904013656 -6.9051005221e-13)
(5222.997523 0.00101478813639 -1.20637248152e-12)
(5222.9931449 0.00431260689777 -1.15523553964e-11)
(5222.95638426 0.0204051937626 -3.93904547851e-11)
(5222.89562464 0.0419903939967 -8.86869544548e-11)
(5222.87133556 0.0575127654401 6.45472673556e-10)
(5222.7543587 0.345063496627 -5.50309406518e-09)
(5215.46211786 8.46385443028 -4.12615083804e-09)
(5181.65419425 30.5312229522 -3.12946770723e-09)
(5161.29664796 34.2010727912 -5.34496384557e-09)
(5151.47719222 34.502466371 -1.49530979349e-08)
(5144.93857328 34.7938896984 -3.16884435341e-08)
(5138.90219021 34.8749215429 -1.73208022267e-07)
(5133.61852448 34.8318166863 -5.94896653779e-07)
(5173.13743642 27.5956372606 1.75803486318e-06)
(5128.36330636 246.169848338 2.32098608612e-05)
(3720.29365497 1090.0297008 -3.39353155018e-05)
(3030.89074134 1279.63138655 -5.98586125054e-06)
(2769.71650179 1319.62516559 -7.29014391996e-05)
(2561.20102568 1335.83704311 -0.000160136182099)
(2358.71491981 1335.20515147 -0.000294135123178)
(2175.68508864 1330.19235507 -0.000527560656633)
(2014.4217378 1319.27209794 -0.000833632799756)
(1872.19632772 1305.22317734 -0.00123586211521)
(1748.11574664 1292.32842479 -0.00164720425935)
(1619.31857429 1281.87596502 -0.00197978931538)
(1497.1441071 1286.34018546 -0.00164780336125)
(1368.70750546 1310.10801349 -0.000149489166869)
(1163.97731262 1301.59386222 0.00180156018157)
(832.133231226 1150.23380993 0.00697248555926)
(755.375723189 1062.65817256 0.010474327738)
(709.635268503 1015.87753663 -0.018092221849)
(657.836673524 978.994504285 -0.0703007207683)
(612.337866416 936.062987919 -0.408898513644)
(570.133754949 894.609997601 -1.61986449618)
(530.699862722 851.146661903 -4.98236528358)
(490.781769655 806.249185008 -11.1199567272)
(453.486363007 764.86807781 -17.6803566507)
(428.820838604 724.840822225 -24.3022164036)
(411.449927908 691.940445895 -13.5785006102)
(398.298739082 668.988556492 -3.60860982228)
(390.610336743 653.479020731 1.52409515394)
(379.876946365 630.149818848 -0.260024524931)
(372.545242638 612.813467178 0.0111870782483)
(370.842839487 605.722785182 -0.00158939964706)
(375.524707665 604.074600722 -0.000359478326307)
(368.663316565 588.585355602 0.000131993340672)
(306.059900981 517.213272402 5.69159836857e-06)
(302.171974166 435.683621309 -9.29264593531e-07)
(298.472171487 383.029835394 4.2728606808e-07)
(293.59097108 339.692499793 1.90574869484e-07)
(291.322584702 303.847636035 1.03746399038e-06)
(287.051814749 268.987871103 2.8762067454e-06)
(285.309066776 235.845588786 9.06267548479e-06)
(282.396315309 203.536197211 8.54025833967e-06)
(280.783263986 171.79912422 -0.000262810777695)
(278.580985942 140.32008049 -0.00482188451084)
(277.098281885 108.592246312 -0.0821362266822)
(274.11505245 76.1336243493 -2.44654130129)
(275.089103129 41.6578426499 -0.0920938107378)
(286.776948358 17.6320874704 -0.0190532631718)
(5223 7.2816644575e-11 -6.32291244162e-13)
(5223 6.53185908991e-11 -6.39770209791e-13)
(5223 3.45793699926e-11 -6.47888874038e-13)
(5223 1.8218380731e-11 -6.68433128278e-13)
(5223 4.16253326747e-10 -6.79148503091e-13)
(5223 1.14791216169e-09 -7.02171877432e-13)
(5223 2.07230626586e-09 -7.0751896876e-13)
(5222.99999999 2.87847704749e-09 -7.1558565843e-13)
(5222.99999999 4.01666495333e-09 -7.3428083268e-13)
(5222.99999999 6.0739798766e-09 -7.48294744167e-13)
(5222.99999992 3.3046260684e-08 -7.50027881e-13)
(5222.99999969 1.27500406179e-07 -7.52854461005e-13)
(5222.99999948 2.15906378982e-07 -7.80621993078e-13)
(5222.99999813 8.10692593273e-07 -8.09634302411e-13)
(5222.9999885 4.6595262224e-06 -8.61548102306e-13)
(5222.99997086 1.22527946523e-05 -8.52414736689e-13)
(5222.99993793 2.62984045187e-05 -7.89280018328e-13)
(5222.99945537 0.000206509552446 -4.60434679112e-13)
(5222.99849371 0.000578014059446 5.46330396092e-14)
(5222.99715189 0.00130595050649 -7.43904934152e-12)
(5222.98986015 0.00845513107439 1.35724203538e-11)
(5222.9436872 0.0336918394781 5.7417654485e-12)
(5222.62326499 0.174855903757 4.97181684177e-12)
(5222.39880442 0.241818447058 1.69370754177e-11)
(5222.27823031 0.269461237454 5.38154065559e-11)
(5222.19475441 0.287897778133 1.67908680291e-10)
(5222.11158023 0.305421981541 6.72088753754e-10)
(5222.03132707 0.322994401923 2.46671477953e-09)
(5221.65614623 1.09238483307 -1.62346527219e-08)
(5214.5632625 12.3836678461 1.12905338445e-07)
(5178.78762859 37.3913979699 -6.16218351553e-07)
(5157.97300486 40.2419952845 -1.0909061229e-07)
(5151.79985012 39.3850254158 -1.65702050735e-06)
(5147.2587779 39.0036047469 -3.49838776343e-06)
(5142.9313814 38.351615735 -6.3664523537e-06)
(5138.9621454 37.5927527397 -1.13898035075e-05)
(5135.35053295 36.7841037889 -1.78594828563e-05)
(5132.00070274 36.0115165269 -2.64391432652e-05)
(5128.90395472 35.372656211 -3.51224050459e-05)
(5125.4110539 34.8646797033 -4.2206915034e-05)
(5122.2302428 34.5796200372 -3.43667270119e-05)
(5147.70707066 29.573264212 7.87916070939e-06)
(4861.38747763 213.308008988 0.000109761025281)
(3527.03550045 667.370729586 0.00142660474283)
(3065.75948981 735.278404103 0.000143271120022)
(2690.23245269 773.492356026 -0.0192266575415)
(2419.38843274 819.23055488 -0.0842261859325)
(2193.20869051 843.868829356 -0.371784248074)
(1991.8469351 860.805740965 -1.25849167656)
(1818.25779081 870.252395633 -3.51321621625)
(1663.32780911 877.191051532 -7.55806960315)
(1525.96772507 879.529284497 -12.0928262324)
(1402.83827862 864.271517492 -15.2799305559)
(1290.82702272 844.131978268 -7.29633367385)
(1188.00834008 821.848164808 -1.69362712777)
(1102.39039953 789.723897534 1.18881409329)
(1032.91489801 755.578753409 -0.289899803322)
(974.598562102 712.413143713 0.0327740553331)
(930.279616252 683.971670764 0.000393106192177)
(893.763487668 692.103577073 -0.000171676762898)
(837.486043175 724.51807175 2.96449565782e-05)
(608.501214772 602.516741397 2.11110769162e-06)
(555.098562769 482.512292521 -2.04660789159e-07)
(532.66703178 422.688559568 1.46442532145e-07)
(508.007507636 373.487641008 8.88605308276e-08)
(488.367022892 334.445912782 5.0049065257e-07)
(469.668229812 294.694993971 1.73726009099e-06)
(456.559590423 257.547838758 1.0020215299e-05)
(442.94504832 222.085202152 6.31607127856e-05)
(433.221566679 187.282248663 0.00047111680508)
(422.94846101 153.307425712 0.00382855186552)
(415.667509077 119.128950551 0.0378958656984)
(406.161072576 83.1513657673 0.381358395692)
(401.317259152 41.7331693135 0.0442502814813)
(413.268447762 9.11300816652 0.0165114333401)
(5223 3.61980856821e-11 -6.16539099339e-13)
(5223 2.8592966882e-11 -6.29482818108e-13)
(5223 -4.21884391051e-12 -6.34453435477e-13)
(5223 -4.47728893448e-11 -6.55134622002e-13)
(5223 -2.40468540855e-11 -6.66401232257e-13)
(5223 8.48507477295e-12 -6.85504426161e-13)
(5223 1.71116640779e-11 -6.9410003129e-13)
(5223 4.01803330557e-13 -7.02955400037e-13)
(5223 2.47779063375e-12 -7.21228515011e-13)
(5223 6.84210237808e-11 -7.34788664985e-13)
(5223 4.84703587353e-10 -7.36765587151e-13)
(5223 1.12092531734e-09 -7.40797611996e-13)
(5223 2.14010521652e-09 -7.56481759572e-13)
(5222.99999999 5.62692432817e-09 -7.79514641806e-13)
(5222.9999999 3.88352449722e-08 -8.36592721574e-13)
(5222.99999973 1.08568588903e-07 -8.39989520427e-13)
(5222.9999989 4.81653602329e-07 -8.55342234855e-13)
(5222.99999405 2.3825534638e-06 -8.57444707885e-13)
(5222.9999865 5.19692372827e-06 -8.66478956792e-13)
(5222.99998515 6.48869872988e-06 -8.48053172201e-13)
(5222.99994015 2.9069268979e-05 -9.79242807804e-13)
(5222.99858637 0.000654080995204 -1.00097972388e-12)
(5222.99446269 0.00198778428382 -1.01877254033e-12)
(5222.99218452 0.00267359317136 -1.15183859511e-12)
(5222.99102383 0.00296818634693 -1.51358108493e-12)
(5222.99019309 0.00315940486065 -2.49026986875e-12)
(5222.98942781 0.00332275374419 -5.87004130885e-12)
(5222.98852915 0.00370767701131 -1.19587058503e-11)
(5222.99320542 0.00489196916364 2.57263597853e-11)
(5222.95270365 0.0391293998171 -1.50398252553e-11)
(5222.58141622 0.1915435522 2.00136669449e-10)
(5222.32853221 0.252703667282 3.53169574996e-10)
(5222.24643648 0.262507278267 2.52927080727e-09)
(5222.18378521 0.270087214772 6.02728078363e-09)
(5222.12582769 0.275552841351 1.25042827506e-08)
(5222.0720863 0.279160972112 2.44535850242e-08)
(5222.02320646 0.281181971829 4.16648533087e-08)
(5221.9778249 0.282189422655 6.54522127467e-08)
(5221.93581064 0.282629305056 9.09405206271e-08)
(5221.89042545 0.283794733738 1.12431264141e-07)
(5221.86285455 0.28275175217 9.41994845029e-08)
(5221.50911805 0.813681704137 5.40817240181e-08)
(5212.22631922 10.5051285782 3.26972844853e-06)
(5179.43851219 26.2499882734 2.74668583325e-05)
(5163.93222807 27.4377091889 -2.52761413142e-05)
(5151.98704159 28.5786621582 -0.000475263545761)
(5144.95397602 28.7635970234 -0.00218150762023)
(5139.31323245 28.5150249274 -0.00953893273113)
(5134.31415383 28.0560377739 -0.0315938400933)
(5129.92745846 27.461714747 -0.0863646691096)
(5125.88752666 26.8366202689 -0.181073835188)
(5122.2202749 26.1330681953 -0.28136400339)
(5118.85586659 25.1960726378 -0.348844007588)
(5115.50891395 24.2744486339 -0.153979831539)
(5112.23107945 23.3535614656 -0.0326364093945)
(5108.93033643 22.3091171369 0.0281684134159)
(5072.50931818 18.1948095071 -0.00100989810169)
(4959.72831229 10.487370159 -0.00103438949671)
(4850.53887127 14.5631386648 1.44263355603e-05)
(4744.75629315 42.3546148006 4.07614635747e-06)
(4542.75091228 211.57185638 -1.05760746272e-06)
(3337.1232891 555.548237465 1.12250534287e-06)
(2937.29720656 517.448975813 -1.18104340043e-07)
(2660.09597452 469.640666915 1.08120749754e-07)
(2453.96586978 419.244674646 8.50199273524e-08)
(2307.85490621 382.283634173 4.98126204249e-07)
(2185.60277139 341.782422651 1.75552755718e-06)
(2093.32553767 302.735023459 1.03256529707e-05)
(2004.47087671 263.325414622 6.572104544e-05)
(1936.77866979 224.675725188 0.000487510566677)
(1868.17088632 185.205078307 0.00388207277276)
(1817.27532349 145.568224269 0.0366322301218)
(1758.05976706 102.466781701 0.310541718638)
(1720.65554779 51.3612508442 0.0403275286538)
(1762.87088847 8.59222026652 0.0156524631255)
(5223 3.23583358055e-11 -5.98147378458e-13)
(5223 4.18903569752e-11 -6.06267177428e-13)
(5223 1.03407520808e-11 -6.13366718701e-13)
(5223 -3.40993082273e-11 -6.31637319352e-13)
(5223 -2.3063976041e-11 -6.52106902563e-13)
(5223 -4.04901436135e-12 -6.64895816195e-13)
(5223 3.02288546571e-12 -6.80055800974e-13)
(5223 -1.58183326501e-11 -6.83097744242e-13)
(5223 -2.73125098383e-11 -7.0251667261e-13)
(5223 -5.62024045815e-12 -7.17004958986e-13)
(5223 -4.79626820593e-12 -7.18094666546e-13)
(5223 -1.28746939758e-11 -7.22399023973e-13)
(5223 6.95557887945e-12 -7.28262431839e-13)
(5223 9.45096163888e-11 -7.49654851565e-13)
(5223 5.598593548e-10 -8.11930047196e-13)
(5223 1.54881299071e-09 -8.15473882331e-13)
(5222.99999999 4.14163611233e-09 -8.30854228353e-13)
(5222.99999993 2.45326305592e-08 -8.35255498225e-13)
(5222.99999985 5.61957032182e-08 -8.47852221932e-13)
(5222.99999968 1.42827548712e-07 -8.46032964076e-13)
(5222.99999859 9.37898948263e-07 -8.76297661788e-13)
(5222.99998992 3.53263618255e-06 -9.41174239229e-13)
(5222.99995463 1.54224539481e-05 -9.48899952836e-13)
(5222.99993166 2.25086072753e-05 -9.81047083465e-13)
(5222.99991872 2.60454978377e-05 -1.0443592218e-12)
(5222.99990916 2.84137436862e-05 -1.01970739572e-12)
(5222.9998996 3.06244693788e-05 -1.0215233558e-12)
(5222.99989402 3.32550050091e-05 -1.03141849759e-12)
(5222.99980628 8.84648077763e-05 -1.37286821827e-12)
(5222.99845484 0.000627623613635 -1.28623683762e-12)
(5222.99402681 0.00183668897276 -2.24172167621e-12)
(5222.99164327 0.00241575965414 -4.02999095651e-12)
(5222.99088368 0.00254099388454 -1.44631851456e-11)
(5222.99029849 0.00262189381576 -3.23125591128e-11)
(5222.98974062 0.00268948680001 -6.59626932099e-11)
(5222.98922238 0.00273968307244 -1.26984805133e-10)
(5222.98874213 0.00277492031264 -2.16813888697e-10)
(5222.98828742 0.00279915950486 -3.40425203712e-10)
(5222.98785211 0.0028152571391 -4.74180389589e-10)
(5222.987363 0.00283631796628 -5.82517899037e-10)
(5222.98690022 0.0029700716331 -4.70112058286e-10)
(5222.98854217 0.00514864895995 -2.25967182054e-10)
(5222.91253259 0.0397964833525 -6.948285212e-10)
(5222.55289689 0.138492032868 3.10936651561e-09)
(5222.3568798 0.169015623111 9.00976960091e-08)
(5222.19838186 0.192197273693 7.95977856257e-07)
(5222.107684 0.200838724245 3.89302004568e-06)
(5222.03689414 0.20522567221 1.66300699835e-05)
(5221.97482361 0.207157935094 5.22299766517e-05)
(5221.9207107 0.207143998659 0.000152538217841)
(5221.87042043 0.206043280222 0.000336219278883)
(5221.82410723 0.203835273219 0.000537284725627)
(5221.78134704 0.200137961562 0.000687866655553)
(5221.73803302 0.196090582944 0.0002860389258)
(5221.7025698 0.191516926123 4.96489824168e-05)
(5221.68862351 0.204061222826 -9.64467378642e-05)
(5220.36535514 0.766322753753 -3.41683171279e-06)
(5217.06343395 1.27794982092 -9.46346311893e-06)
(5214.27338633 1.64621586698 9.59206670132e-08)
(5211.9955716 2.59616395654 5.59666744321e-08)
(5206.45563872 9.66093627587 -1.62067741267e-08)
(5174.92845312 21.5025129203 2.7056700565e-08)
(5161.82260626 18.928956571 -4.05854973942e-09)
(5152.68657813 17.6437695535 3.24713003317e-09)
(5146.3742423 15.7791855953 2.43478955721e-09)
(5142.67238811 14.229745213 1.47604035117e-08)
(5139.36370525 12.6078150775 5.65897057841e-08)
(5137.42936464 11.1761023845 2.99764440618e-07)
(5134.77124378 9.65544749015 2.11147979054e-06)
(5133.44329123 8.25781140866 1.41722595428e-05)
(5131.31245709 6.78325038663 0.000122739119417)
(5130.38852319 5.38475459974 0.00106686926707)
(5128.63680919 3.84878198676 0.00902044263732)
(5127.49153039 1.82815590886 0.00114467239074)
(5129.09821449 0.107409627531 0.000452461184089)
(5223 1.74992885123e-11 -5.86667904972e-13)
(5223 4.53932512653e-11 -6.04317113959e-13)
(5223 1.786058967e-11 -5.97947913098e-13)
(5223 -3.23384904298e-11 -6.05689003592e-13)
(5223 -2.71907582403e-11 -6.21097924635e-13)
(5223 -5.57450314876e-12 -6.42163706053e-13)
(5223 9.16327668756e-12 -6.4893277306e-13)
(5223 -4.07592789147e-12 -6.52502233283e-13)
(5223 -2.07072337727e-11 -6.65053039627e-13)
(5223 -1.57235040519e-12 -6.71817825484e-13)
(5223 2.49705965695e-12 -6.8455663733e-13)
(5223 -8.00386229082e-12 -6.71218624343e-13)
(5223 -1.6119442941e-11 -6.78618926845e-13)
(5223 -5.75389971158e-12 -7.13355105065e-13)
(5223 5.93318077048e-11 -7.84677527828e-13)
(5223 5.1007462082e-11 -7.85794861545e-13)
(5223 9.34966245041e-11 -8.06554704558e-13)
(5223 3.03705185274e-10 -8.14690283985e-13)
(5223 6.04647498534e-10 -8.30085909842e-13)
(5223 5.74897075714e-10 -8.28603615664e-13)
(5222.99999999 3.85459402195e-09 -8.48459896508e-13)
(5222.99999981 7.65797532669e-08 -9.14797506141e-13)
(5222.99999942 1.95416612309e-07 -9.24843884891e-13)
(5222.9999992 2.57281308824e-07 -9.52027918545e-13)
(5222.99999908 2.88789745158e-07 -1.0300666881e-12)
(5222.99999899 3.09956407315e-07 -1.00455921444e-12)
(5222.99999891 3.28397355742e-07 -1.01914678515e-12)
(5222.99999877 3.84090321998e-07 -1.05202077529e-12)
(5222.99999901 4.06798372116e-07 -1.10768856927e-12)
(5222.99999044 2.873632994e-06 -1.17729844966e-12)
(5222.99995051 1.40829386716e-05 -1.18360551403e-12)
(5222.99992551 2.03611781247e-05 -1.19286931144e-12)
(5222.99991679 2.20640229439e-05 -1.17179200643e-12)
(5222.99990977 2.32777181504e-05 -1.11730900748e-12)
(5222.99990314 2.43170973611e-05 -9.76268939456e-13)
(5222.99989685 2.51850011811e-05 -7.15481628649e-13)
(5222.99989097 2.58797285285e-05 -2.82776998214e-13)
(5222.99988536 2.64407987069e-05 3.66610482877e-13)
(5222.99987998 2.68873504705e-05 1.10300223234e-12)
(5222.99987439 2.73464761813e-05 1.62105337962e-12)
(5222.99987088 2.77518552665e-05 7.53810556185e-13)
(5222.99979793 6.44221065644e-05 -1.36633874172e-12)
(5222.99838449 0.000416376040221 -7.1594465804e-12)
(5222.99452511 0.00117334041385 -8.58087337083e-11)
(5222.99263571 0.00147419950601 -7.81208381731e-10)
(5222.99114769 0.00168510852098 -4.93920310773e-09)
(5222.99025379 0.00177733169032 -2.23341836328e-08)
(5222.98952824 0.00183354672806 -8.69153052133e-08)
(5222.98888024 0.00186837309702 -2.66479109736e-07)
(5222.98830247 0.00188496361403 -7.33111609247e-07)
(5222.98776737 0.00188822114477 -1.50227658866e-06)
(5222.98727073 0.00187944626127 -2.49746672016e-06)
(5222.9868115 0.00185838662657 -3.17020492841e-06)
(5222.98634957 0.00183170192755 -1.10809029744e-06)
(5222.98590874 0.00181058972232 -2.11635343396e-07)
(5222.98502014 0.00229496484621 2.80391283856e-07)
(5222.97787881 0.00386088011025 1.57911610339e-10)
(5222.95667538 0.00641037681066 4.91900854717e-09)
(5222.9343003 0.00880745857873 -2.1337180372e-10)
(5222.91135154 0.0139926713861 -1.02844638722e-11)
(5222.85099077 0.0371075224666 -2.03556373242e-11)
(5222.48838248 0.093001581604 1.49827659701e-11)
(5222.3211344 0.0932820632925 -1.40100799049e-11)
(5222.18951338 0.0938444216791 -1.09986115305e-11)
(5222.10245618 0.0886551840982 -1.36659804826e-11)
(5222.05190846 0.0820301594837 -1.78302037712e-11)
(5222.01243109 0.0746850391036 -2.94833822388e-11)
(5221.97961289 0.0668776094078 -7.79972146633e-11)
(5221.9536124 0.0590572818582 -4.99275246936e-10)
(5221.92929101 0.0504174667157 -3.96296477742e-09)
(5221.91024452 0.0423240483211 -2.84909992488e-08)
(5221.89172496 0.0329688181151 -2.92480690083e-07)
(5221.8752044 0.0243443140005 -1.54386563556e-06)
(5221.86365457 0.0146341171307 1.22428416843e-07)
(5221.87191586 0.00181968434782 -8.67969481823e-06)
(5223 7.9627622365e-12 -5.56655315961e-13)
(5223 4.31178339869e-11 -5.79696231374e-13)
(5223 2.12985519252e-11 -5.87531198078e-13)
(5223 -1.72538555462e-11 -5.84238267969e-13)
(5223 -3.41122260726e-11 -6.04880198377e-13)
(5223 -1.25824107144e-11 -6.24220268366e-13)
(5223 7.14629934202e-12 -6.36057237923e-13)
(5223 -4.15714252966e-12 -6.35792431499e-13)
(5223 -2.83975432901e-11 -6.35004984638e-13)
(5223 -9.72402738937e-12 -6.48037484289e-13)
(5223 1.91786164198e-12 -6.47085347366e-13)
(5223 -1.0288184155e-11 -6.07462205983e-13)
(5223 -9.64679505848e-12 -6.1692020463e-13)
(5223 -1.07960002397e-11 -6.2949222773e-13)
(5223 4.62562203636e-11 -7.39800517927e-13)
(5223 4.20723882414e-11 -7.5147861837e-13)
(5223 4.22895907753e-11 -7.78195640982e-13)
(5223 6.51674782222e-11 -7.89246559853e-13)
(5223 4.4236883055e-11 -8.12450882195e-13)
(5223 2.53390559844e-11 -8.10493928279e-13)
(5223 1.37098772711e-10 -8.19806172599e-13)
(5223 4.42054445284e-10 -8.8545511799e-13)
(5223 1.43054295295e-09 -8.99024920967e-13)
(5222.99999999 1.96853138468e-09 -9.16158111577e-13)
(5222.99999999 2.29533427072e-09 -1.01173981446e-12)
(5222.99999999 2.51364240261e-09 -9.77136057028e-13)
(5222.99999999 2.6722382151e-09 -9.81949919246e-13)
(5222.99999999 2.87328242208e-09 -1.01974753412e-12)
(5222.99999998 9.25805578408e-09 -1.05983311307e-12)
(5222.99999982 6.67108155042e-08 -1.12700017662e-12)
(5222.99999942 1.62490255856e-07 -1.14858743565e-12)
(5222.99999921 2.11746592578e-07 -1.17027302261e-12)
(5222.99999913 2.26076895949e-07 -1.20152793548e-12)
(5222.99999906 2.36192337251e-07 -1.24903444767e-12)
(5222.999999 2.45133346103e-07 -1.29797928696e-12)
(5222.99999894 2.5251336855e-07 -1.38745759559e-12)
(5222.99999889 2.58414975671e-07 -1.4778010557e-12)
(5222.99999884 2.63170905567e-07 -1.54442488156e-12)
(5222.99999879 2.67057301901e-07 -1.5811552401e-12)
(5222.99999873 2.71464548275e-07 -1.6711005247e-12)
(5222.99999867 2.84702101525e-07 -1.72633230402e-12)
(5222.99999852 3.9847436348e-07 -1.86826994514e-12)
(5222.99998744 2.60376056294e-06 -1.8169952715e-12)
(5222.99995134 9.59362247023e-06 -1.05202508419e-12)
(5222.99993157 1.28130162403e-05 4.60540568079e-12)
(5222.99991556 1.51786216898e-05 3.3994583775e-11)
(5222.99990597 1.62646074246e-05 1.50492498976e-10)
(5222.99989824 1.69514615451e-05 5.49336481434e-10)
(5222.99989131 1.74199566138e-05 1.6294389058e-09)
(5222.99988511 1.76953767574e-05 4.22782923105e-09)
(5222.99987922 1.78445746978e-05 8.40447588129e-09)
(5222.99987375 1.78739610571e-05 1.34077202411e-08)
(5222.99986858 1.77887688721e-05 1.73003865817e-08)
(5222.99986332 1.76505323365e-05 4.95973889539e-09)
(5222.99985841 1.74259715727e-05 9.33373121767e-10)
(5222.99985505 1.84762684941e-05 -1.17690731293e-09)
(5222.99971115 3.56892981243e-05 2.14352273395e-11)
(5222.99937225 7.04997758646e-05 -3.73195287325e-11)
(5222.99907821 9.68829665754e-05 -5.23876164191e-12)
(5222.99880078 0.000132734897142 -7.59010236353e-12)
(5222.99804725 0.000238442342611 -8.3907006453e-12)
(5222.99444856 0.000566389964372 -9.50551988548e-12)
(5222.99290963 0.000620642798901 -1.14455265729e-11)
(5222.99179684 0.000641346299565 -1.23815810958e-11)
(5222.99103527 0.000624478060001 -1.39224957382e-11)
(5222.99058118 0.000586434615673 -1.73498040852e-11)
(5222.99017772 0.000542640029384 -2.37308166827e-11)
(5222.98993515 0.000488205139025 -2.40891227221e-11)
(5222.98960765 0.000434760941522 -5.00454505492e-11)
(5222.9894396 0.000372536245356 -4.52398231999e-11)
(5222.98917495 0.000311481207839 7.16116903685e-12)
(5222.98905723 0.000244146462375 7.77244566634e-10)
(5222.98883949 0.000176281628314 4.30591601361e-09)
(5222.98870105 0.000103540502281 -1.30484621185e-09)
(5222.98887137 3.76268735695e-05 2.04235549902e-08)
(5223 4.93822602058e-12 -5.5050316203e-13)
(5223 4.03621101456e-11 -5.64112475033e-13)
(5223 2.49137323964e-11 -5.63787023975e-13)
(5223 -5.61935179025e-12 -5.67073887309e-13)
(5223 -3.99209550685e-11 -5.72246296627e-13)
(5223 -1.58939622049e-11 -5.69247961566e-13)
(5223 8.4714701226e-12 -6.07902269139e-13)
(5223 9.05215669691e-13 -6.14923457341e-13)
(5223 -2.17531966961e-11 -6.01869097563e-13)
(5223 -1.62915969565e-11 -6.12310540867e-13)
(5223 2.61230871394e-12 -6.44669870958e-13)
(5223 -1.40535085596e-11 -5.99057330767e-13)
(5223 -2.17486455424e-11 -5.97880450051e-13)
(5223 -1.21111593717e-11 -6.45511118945e-13)
(5223 4.09534112571e-11 -6.70347839522e-13)
(5223 4.48434593095e-11 -6.32158310094e-13)
(5223 3.93550438874e-11 -7.40653568934e-13)
(5223 6.34264715971e-11 -7.43127096385e-13)
(5223 4.49267694544e-11 -7.84347413144e-13)
(5223 4.82894285e-12 -7.81221386368e-13)
(5223 2.5633577382e-11 -7.91598124943e-13)
(5223 2.89787917636e-11 -8.53747523951e-13)
(5223 1.79236887003e-11 -8.73174253625e-13)
(5223 -1.70978341797e-11 -8.73884671833e-13)
(5223 -3.37302646773e-12 -9.9385476366e-13)
(5223 5.25879216441e-12 -9.51100872111e-13)
(5223 -6.52621197857e-11 -9.47320263661e-13)
(5223 -6.01736391701e-11 -9.82293572367e-13)
(5223 2.32582510567e-11 -1.01405214865e-12)
(5223 4.12988725671e-10 -1.07324621153e-12)
(5223 1.30476319134e-09 -1.10913015294e-12)
(5222.99999999 1.76482384766e-09 -1.12976688598e-12)
(5222.99999999 1.89202734751e-09 -1.15795849e-12)
(5222.99999999 1.96789411057e-09 -1.20658881328e-12)
(5222.99999999 2.0919030622e-09 -1.24655244209e-12)
(5222.99999999 2.21296661863e-09 -1.33291215043e-12)
(5222.99999999 2.28034963552e-09 -1.41873722464e-12)
(5222.99999999 2.29813245536e-09 -1.48198582785e-12)
(5222.99999999 2.34835829465e-09 -1.51042990473e-12)
(5222.99999999 2.37808528442e-09 -1.6096847922e-12)
(5222.99999999 2.43176980479e-09 -1.67422808636e-12)
(5222.99999998 5.62270737571e-09 -1.8414897359e-12)
(5222.99999982 4.05525984073e-08 -1.90269176813e-12)
(5222.99999948 9.96129033724e-08 -2.01460558033e-12)
(5222.9999993 1.2807382533e-07 -2.20485066342e-12)
(5222.99999915 1.4834700961e-07 -2.64119977554e-12)
(5222.99999906 1.58170896694e-07 -3.52551774655e-12)
(5222.99999899 1.64678589105e-07 -6.17358221614e-12)
(5222.99999892 1.69156331615e-07 -1.2865514274e-11)
(5222.99999886 1.71948877859e-07 -2.79240941719e-11)
(5222.9999988 1.73427756595e-07 -5.0838210012e-11)
(5222.99999874 1.73843455209e-07 -7.60136333263e-11)
(5222.99999869 1.73037950377e-07 -9.86905623778e-11)
(5222.99999864 1.71801542907e-07 -2.48820868867e-11)
(5222.9999986 1.69473956993e-07 -8.41221796026e-12)
(5222.99999847 1.89634428897e-07 8.84832928637e-13)
(5222.99999752 2.9918041657e-07 -5.82967817816e-12)
(5222.99999516 5.26460134983e-07 -5.97781283635e-12)
(5222.99999275 7.30773841376e-07 -6.56669217954e-12)
(5222.99999032 9.6526696008e-07 -7.39713315385e-12)
(5222.99998289 1.69918533203e-06 -8.08626500347e-12)
(5222.99994631 4.62785984286e-06 -9.07790496745e-12)
(5222.99992954 5.40321801173e-06 -1.08053286209e-11)
(5222.99991636 5.8149628896e-06 -1.1694459722e-11)
(5222.99990755 5.81227630428e-06 -1.31444047263e-11)
(5222.99990226 5.52540878814e-06 -1.67304989421e-11)
(5222.99989803 5.14129300414e-06 -2.28460189425e-11)
(5222.99989453 4.67145722109e-06 -2.36845277369e-11)
(5222.99989163 4.15817060478e-06 -5.09073535292e-11)
(5222.99988898 3.58218503166e-06 -5.61382009245e-11)
(5222.9998868 2.9917444406e-06 -8.39876663843e-11)
(5222.99988476 2.34105746178e-06 -1.53495829995e-10)