/*--------------------------------*- C++ -*----------------------------------*\
| =========                 |                                                 |
| \\      /  F ield         | OpenFOAM: The Open Source CFD Toolbox           |
|  \\    /   O peration     | Version:  v1706                                 |
|   \\  /    A nd           | Web:      www.OpenFOAM.com                      |
|    \\/     M anipulation  |                                                 |
\*---------------------------------------------------------------------------*/
FoamFile
{
    version     2.0;
    format      ascii;
    class       volScalarField;
    location    "0.014";
    object      wallHeatFlux;
}
// * * * * * * * * * * * * * * * * * * * * * * * * * * * * * * * * * * * * * //

dimensions      [1 0 -3 0 0 0 0];


internalField   uniform 0;

boundaryField
{
    inlet
    {
        type            calculated;
        value           uniform 0;
    }
    outlet
    {
        type            calculated;
        value           uniform 0;
    }
    object
    {
        type            calculated;
        value           nonuniform List<scalar> 
260
(
114963.331897
112151.314571
109545.147417
107766.093917
106605.464318
106010.389048
105570.778898
105566.878196
105582.42651
105345.012078
104971.536946
104602.509583
104278.793133
104212.298035
103968.80199
103638.620664
103300.947646
102915.67256
102547.636275
101833.481538
101111.244762
100402.212557
100016.626602
100081.695886
100480.464439
101253.133213
101942.867819
102465.473103
102567.608068
102661.50706
102245.794191
101587.132707
100901.641506
100184.408986
99656.030773
99260.4315571
98970.5141878
98792.5417268
98633.0432806
98630.9100488
98705.0611935
98886.7435485
99106.6217235
99332.7175312
99399.3734309
99272.2118411
99013.0832252
98594.8944319
98094.6312143
97471.8762464
96933.5089861
96553.2780115
96344.4933198
96253.7020304
96379.2976318
96565.9404568
96854.8235937
97482.5441545
98212.2150051
99241.8082606
100732.06169
100904.60275
100713.773222
100136.268652
99292.6162424
98442.7039801
97700.1969394
97029.0276225
96454.5703677
95956.7973858
95653.8313975
95658.3139663
96122.9345265
96864.4881414
97903.2902666
99079.3222861
100287.491767
101331.741845
102140.177197
102576.147546
102769.559945
102921.398246
103110.158677
103216.824862
103600.503275
103856.566808
104491.624718
105680.927678
107000.563914
107856.377842
108622.863153
109065.64739
109054.238485
108740.634284
108244.991624
107641.30833
107033.25529
106374.781804
105723.788523
105214.394641
104888.229891
104724.226946
104785.641945
104840.749839
104850.829431
104916.860939
105131.882412
105582.868014
106356.450499
107309.913566
108174.060695
108799.615296
109229.885319
109438.047173
109474.532805
109385.298603
109397.701396
109558.464305
109849.32153
110162.31662
110624.096389
111206.025985
111828.279576
112837.516018
113871.778278
114306.907027
114517.4192
114527.51352
114438.048542
114290.055884
114068.840437
114016.773172
113998.610449
114268.212635
114404.441266
114625.308713
115004.849146
115230.289553
115427.208972
115699.053179
116000.758719
116307.827506
116485.379971
116478.132259
116748.964698
117247.369288
117808.433193
118579.33225
120623.728309
126023.013324
-2921.23850851
-2525.24283252
-1927.36704358
-1004.72232599
-799.449263315
43.5093875848
1655.62133591
3096.10910392
4495.41856443
6889.79251476
9575.19332532
11789.6907131
13727.9319656
15627.8123013
19780.4899434
23810.9414858
25715.0146211
28848.668111
35285.3131696
40452.2700978
44018.4046502
48841.9936127
56412.1085434
62888.5015592
67793.8739241
73689.9312497
82126.5799027
89184.9065858
94052.2531857
99559.5090171
108286.51203
114543.701218
119319.135953
123777.031741
128548.422057
117476.45063
121084.39802
124243.534491
126574.508717
128866.596644
131021.192983
132632.906731
133446.620422
134370.301704
135898.91843
137013.591581
138611.784409
139546.354041
141376.810398
142460.77727
144372.972079
145731.799969
146700.785225
147613.891984
147814.819184
147911.349035
148457.69039
149188.834167
151514.817051
152062.486499
153070.234088
153728.462837
154484.265806
155001.469051
155174.405005
154983.765847
154399.400018
153780.744845
153400.245784
153409.48873
153259.855887
153269.294861
153119.126297
152972.623404
152589.993464
152259.324584
151955.373211
151814.338291
151989.101732
152118.655494
152130.085536
152266.454659
152586.755753
152930.827054
153321.789766
153557.652935
153622.750444
153457.127272
153007.337348
152145.023217
150893.938742
149434.25167
147698.969319
146039.932553
144561.145755
143334.424384
142923.349028
145310.812413
147945.776597
150738.270452
153668.266986
156146.47438
158763.825829
161361.334295
164273.268464
167800.415732
171790.190152
175901.841298
179305.330724
179616.997099
)
;
    }
    empty
    {
        type            empty;
    }
    frontAndBack
    {
        type            empty;
    }
    frontAndBack_pos
    {
        type            wedge;
    }
    frontAndBack_neg
    {
        type            wedge;
    }
}


// ************************************************************************* //
